 Entering Gaussian System, Link 0=g16
 Initial command:
 /sw/cluster/pub/apps//g16/l1.exe "/data/mmaximo/40568/Gau-3282283.inp" -scrdir="/data/mmaximo/40568/"
 Entering Link 1 = /sw/cluster/pub/apps//g16/l1.exe PID=   3282284.
  
 Copyright (c) 1988,1990,1992,1993,1995,1998,2003,2009,2016,
            Gaussian, Inc.  All Rights Reserved.
  
 This is part of the Gaussian(R) 16 program.  It is based on
 the Gaussian(R) 09 system (copyright 2009, Gaussian, Inc.),
 the Gaussian(R) 03 system (copyright 2003, Gaussian, Inc.),
 the Gaussian(R) 98 system (copyright 1998, Gaussian, Inc.),
 the Gaussian(R) 94 system (copyright 1995, Gaussian, Inc.),
 the Gaussian 92(TM) system (copyright 1992, Gaussian, Inc.),
 the Gaussian 90(TM) system (copyright 1990, Gaussian, Inc.),
 the Gaussian 88(TM) system (copyright 1988, Gaussian, Inc.),
 the Gaussian 86(TM) system (copyright 1986, Carnegie Mellon
 University), and the Gaussian 82(TM) system (copyright 1983,
 Carnegie Mellon University). Gaussian is a federally registered
 trademark of Gaussian, Inc.
  
 This software contains proprietary and confidential information,
 including trade secrets, belonging to Gaussian, Inc.
  
 This software is provided under written license and may be
 used, copied, transmitted, or stored only in accord with that
 written license.
  
 The following legend is applicable only to US Government
 contracts under FAR:
  
                    RESTRICTED RIGHTS LEGEND
  
 Use, reproduction and disclosure by the US Government is
 subject to restrictions as set forth in subparagraphs (a)
 and (c) of the Commercial Computer Software - Restricted
 Rights clause in FAR 52.227-19.
  
 Gaussian, Inc.
 340 Quinnipiac St., Bldg. 40, Wallingford CT 06492
  
  
 ---------------------------------------------------------------
 Warning -- This program may not be used in any manner that
 competes with the business of Gaussian, Inc. or will provide
 assistance to any competitor of Gaussian, Inc.  The licensee
 of this program is prohibited from giving any competitor of
 Gaussian, Inc. access to this program.  By using this program,
 the user acknowledges that Gaussian, Inc. is engaged in the
 business of creating and licensing software in the field of
 computational chemistry and represents and warrants to the
 licensee that it is not a competitor of Gaussian, Inc. and that
 it will not use this program in any manner prohibited above.
 ---------------------------------------------------------------
  

 Cite this work as:
 Gaussian 16, Revision A.03,
 M. J. Frisch, G. W. Trucks, H. B. Schlegel, G. E. Scuseria, 
 M. A. Robb, J. R. Cheeseman, G. Scalmani, V. Barone, 
 G. A. Petersson, H. Nakatsuji, X. Li, M. Caricato, A. V. Marenich, 
 J. Bloino, B. G. Janesko, R. Gomperts, B. Mennucci, H. P. Hratchian, 
 J. V. Ortiz, A. F. Izmaylov, J. L. Sonnenberg, D. Williams-Young, 
 F. Ding, F. Lipparini, F. Egidi, J. Goings, B. Peng, A. Petrone, 
 T. Henderson, D. Ranasinghe, V. G. Zakrzewski, J. Gao, N. Rega, 
 G. Zheng, W. Liang, M. Hada, M. Ehara, K. Toyota, R. Fukuda, 
 J. Hasegawa, M. Ishida, T. Nakajima, Y. Honda, O. Kitao, H. Nakai, 
 T. Vreven, K. Throssell, J. A. Montgomery, Jr., J. E. Peralta, 
 F. Ogliaro, M. J. Bearpark, J. J. Heyd, E. N. Brothers, K. N. Kudin, 
 V. N. Staroverov, T. A. Keith, R. Kobayashi, J. Normand, 
 K. Raghavachari, A. P. Rendell, J. C. Burant, S. S. Iyengar, 
 J. Tomasi, M. Cossi, J. M. Millam, M. Klene, C. Adamo, R. Cammi, 
 J. W. Ochterski, R. L. Martin, K. Morokuma, O. Farkas, 
 J. B. Foresman, and D. J. Fox, Gaussian, Inc., Wallingford CT, 2016.
 
 ******************************************
 Gaussian 16:  ES64L-G16RevA.03 25-Dec-2016
                 7-Nov-2025 
 ******************************************
 %chk=f3.chk
 --------------------------------------
 #P B3LYP/6-31G* nosymm Density=Current
 --------------------------------------
 1/30=1,38=1,172=1/1;
 2/12=2,15=1,17=6,18=5,40=1/2;
 3/5=1,6=6,7=1,11=2,25=1,30=1,74=-5/1,2,3;
 4//1;
 5/5=2,38=5/2;
 6/7=2,8=2,9=2,10=2,22=-1,28=1/1;
 99/5=1,9=1/99;
 Leave Link    1 at Fri Nov  7 11:10:35 2025, MaxMem=           0 cpu:               0.0 elap:               0.0
 (Enter /sw/cluster/pub/apps//g16/l101.exe)
 ---------------
 Single-Point F3
 ---------------
 Symbolic Z-matrix:
 Charge =  0 Multiplicity = 1
 C                     0.01745  -0.59455   0.27001 
 C                    -0.68856   0.9566    2.45812 
 H                     0.93458   1.1858    1.04532 
 H                    -0.65414   1.4698    0.38562 
 C                     0.76563  -1.10956  -2.34973 
 H                    -0.52613   3.13836   2.2479 
 H                    -0.80908   0.15226  -1.56626 
 H                     0.85948   2.39119   3.06789 
 H                    -0.68129   2.58648   3.92713 
 H                     0.8074    0.72819  -1.2626 
 C                     1.15312  -1.45377   0.83122 
 C                     2.29059  -1.23654  -2.3055 
 C                    -0.33474  -0.0875    3.51984 
 C                     2.68203  -2.5885   -2.31873 
 C                    -1.50393  -0.62286   4.09815 
 C                     0.66371  -2.69278   1.28722 
 C                    -0.78335  -2.73787   1.05698 
 C                    -2.67132  -0.00713   3.45771 
 C                     1.47503  -3.42161  -2.34973 
 C                    -2.21796   0.9082    2.48943 
 C                     0.34333  -2.5805   -2.34973 
 C                    -1.18294  -1.52504   0.46353 
 C                    -2.51527  -1.327     0.11488 
 C                    -0.93091  -3.13026  -2.44645 
 C                    -3.12926   1.66905   1.76477 
 C                    -3.44877  -2.33659   0.37348 
 C                    -4.49959   1.49544   1.99241 
 C                    -1.07343  -4.52056  -2.50783 
 C                    -4.94891   0.5734    2.94371 
 C                     0.05008  -5.35358  -2.48636 
 C                    -3.04915  -3.53782   0.96855 
 C                    -1.71278  -3.74681   1.31353 
 C                     1.33314  -4.80922  -2.41218 
 C                    -4.0376   -0.18107   3.68587 
 H                    -4.39122  -0.88996   4.43031 
 H                     2.20573  -5.45767  -2.41024 
 H                    -1.40345  -4.6843    1.76838 
 H                    -3.78478  -4.3139    1.16409 
 H                    -0.07666  -6.4321   -2.53408 
 H                    -6.01553   0.44849   3.1115 
 H                    -4.49297  -2.18138   0.11593 
 H                    -5.21895   2.08442   1.42929 
 H                    -2.06739  -4.95526  -2.56834 
 H                    -2.84361  -0.39582  -0.33814 
 H                    -2.79113   2.39372   1.02672 
 H                    -1.81276  -2.49715  -2.45578 
 C                     1.52311  -3.63264   1.85782 
 C                     4.03406  -2.93642  -2.32374 
 C                    -1.42568  -1.55233   5.13718 
 C                     2.87961  -3.32431   1.97433 
 C                     4.99372  -1.92175  -2.32348 
 C                    -0.1682   -1.93698   5.60499 
 C                     3.3683   -2.09215   1.52739 
 C                     4.60639  -0.57751  -2.32776 
 C                     0.99278  -1.39067   5.04795 
 C                     3.25027  -0.22995  -2.32331 
 C                     0.91393  -0.45805   4.00822 
 C                     2.5049   -1.15012   0.95745 
 H                     2.96103   0.81906  -2.33358 
 H                     1.82465  -0.04801   3.58259 
 H                     2.90143  -0.20244   0.60438 
 H                     4.42755  -1.86611   1.61505 
 H                     5.36329   0.20252  -2.33915 
 H                     1.96639  -1.69461   5.42254 
 H                     3.56137  -4.04751   2.41466 
 H                     6.04994  -2.17836  -2.32746 
 H                    -0.09072  -2.6609    6.41214 
 H                     1.14482  -4.58811   2.21196 
 H                     4.33977  -3.97962  -2.32908 
 H                    -2.32757  -1.96607   5.58142 
 C                     0.18518  -0.17615  -1.23797 
 C                    -0.23029   2.35608   2.95711 
 C                    -0.08581   0.78251   1.02619 
 C                     0.36389  -0.47229  -3.70983 
 H                     0.70592   0.56796  -3.7694 
 H                    -0.72485  -0.48072  -3.83498 
 H                     0.80916  -1.02611  -4.54198 
 
 ITRead=  0  0  0  0  0  0  0  0  0  0  0  0  0  0  0  0  0  0  0  0
 ITRead=  0  0  0  0  0  0  0  0  0  0  0  0  0  0  0  0  0  0  0  0
 ITRead=  0  0  0  0  0  0  0  0  0  0  0  0  0  0  0  0  0  0  0  0
 ITRead=  0  0  0  0  0  0  0  0  0  0  0  0  0  0  0  0  0
 MicOpt= -1 -1 -1 -1 -1 -1 -1 -1 -1 -1 -1 -1 -1 -1 -1 -1 -1 -1 -1 -1
 MicOpt= -1 -1 -1 -1 -1 -1 -1 -1 -1 -1 -1 -1 -1 -1 -1 -1 -1 -1 -1 -1
 MicOpt= -1 -1 -1 -1 -1 -1 -1 -1 -1 -1 -1 -1 -1 -1 -1 -1 -1 -1 -1 -1
 MicOpt= -1 -1 -1 -1 -1 -1 -1 -1 -1 -1 -1 -1 -1 -1 -1 -1 -1
 NAtoms=     77 NQM=       77 NQMF=       0 NMMI=      0 NMMIF=      0
                NMic=       0 NMicF=      0.
                    Isotopes and Nuclear Properties:
 (Nuclear quadrupole moments (NQMom) in fm**2, nuclear magnetic moments (NMagM)
  in nuclear magnetons)

  Atom         1           2           3           4           5           6           7           8           9          10
 IAtWgt=          12          12           1           1          12           1           1           1           1           1
 AtmWgt=  12.0000000  12.0000000   1.0078250   1.0078250  12.0000000   1.0078250   1.0078250   1.0078250   1.0078250   1.0078250
 NucSpn=           0           0           1           1           0           1           1           1           1           1
 AtZEff=  -0.0000000  -0.0000000  -0.0000000  -0.0000000  -0.0000000  -0.0000000  -0.0000000  -0.0000000  -0.0000000  -0.0000000
 NQMom=    0.0000000   0.0000000   0.0000000   0.0000000   0.0000000   0.0000000   0.0000000   0.0000000   0.0000000   0.0000000
 NMagM=    0.0000000   0.0000000   2.7928460   2.7928460   0.0000000   2.7928460   2.7928460   2.7928460   2.7928460   2.7928460
 AtZNuc=   6.0000000   6.0000000   1.0000000   1.0000000   6.0000000   1.0000000   1.0000000   1.0000000   1.0000000   1.0000000

  Atom        11          12          13          14          15          16          17          18          19          20
 IAtWgt=          12          12          12          12          12          12          12          12          12          12
 AtmWgt=  12.0000000  12.0000000  12.0000000  12.0000000  12.0000000  12.0000000  12.0000000  12.0000000  12.0000000  12.0000000
 NucSpn=           0           0           0           0           0           0           0           0           0           0
 AtZEff=  -0.0000000  -0.0000000  -0.0000000  -0.0000000  -0.0000000  -0.0000000  -0.0000000  -0.0000000  -0.0000000  -0.0000000
 NQMom=    0.0000000   0.0000000   0.0000000   0.0000000   0.0000000   0.0000000   0.0000000   0.0000000   0.0000000   0.0000000
 NMagM=    0.0000000   0.0000000   0.0000000   0.0000000   0.0000000   0.0000000   0.0000000   0.0000000   0.0000000   0.0000000
 AtZNuc=   6.0000000   6.0000000   6.0000000   6.0000000   6.0000000   6.0000000   6.0000000   6.0000000   6.0000000   6.0000000

  Atom        21          22          23          24          25          26          27          28          29          30
 IAtWgt=          12          12          12          12          12          12          12          12          12          12
 AtmWgt=  12.0000000  12.0000000  12.0000000  12.0000000  12.0000000  12.0000000  12.0000000  12.0000000  12.0000000  12.0000000
 NucSpn=           0           0           0           0           0           0           0           0           0           0
 AtZEff=  -0.0000000  -0.0000000  -0.0000000  -0.0000000  -0.0000000  -0.0000000  -0.0000000  -0.0000000  -0.0000000  -0.0000000
 NQMom=    0.0000000   0.0000000   0.0000000   0.0000000   0.0000000   0.0000000   0.0000000   0.0000000   0.0000000   0.0000000
 NMagM=    0.0000000   0.0000000   0.0000000   0.0000000   0.0000000   0.0000000   0.0000000   0.0000000   0.0000000   0.0000000
 AtZNuc=   6.0000000   6.0000000   6.0000000   6.0000000   6.0000000   6.0000000   6.0000000   6.0000000   6.0000000   6.0000000

  Atom        31          32          33          34          35          36          37          38          39          40
 IAtWgt=          12          12          12          12           1           1           1           1           1           1
 AtmWgt=  12.0000000  12.0000000  12.0000000  12.0000000   1.0078250   1.0078250   1.0078250   1.0078250   1.0078250   1.0078250
 NucSpn=           0           0           0           0           1           1           1           1           1           1
 AtZEff=  -0.0000000  -0.0000000  -0.0000000  -0.0000000  -0.0000000  -0.0000000  -0.0000000  -0.0000000  -0.0000000  -0.0000000
 NQMom=    0.0000000   0.0000000   0.0000000   0.0000000   0.0000000   0.0000000   0.0000000   0.0000000   0.0000000   0.0000000
 NMagM=    0.0000000   0.0000000   0.0000000   0.0000000   2.7928460   2.7928460   2.7928460   2.7928460   2.7928460   2.7928460
 AtZNuc=   6.0000000   6.0000000   6.0000000   6.0000000   1.0000000   1.0000000   1.0000000   1.0000000   1.0000000   1.0000000

  Atom        41          42          43          44          45          46          47          48          49          50
 IAtWgt=           1           1           1           1           1           1          12          12          12          12
 AtmWgt=   1.0078250   1.0078250   1.0078250   1.0078250   1.0078250   1.0078250  12.0000000  12.0000000  12.0000000  12.0000000
 NucSpn=           1           1           1           1           1           1           0           0           0           0
 AtZEff=  -0.0000000  -0.0000000  -0.0000000  -0.0000000  -0.0000000  -0.0000000  -0.0000000  -0.0000000  -0.0000000  -0.0000000
 NQMom=    0.0000000   0.0000000   0.0000000   0.0000000   0.0000000   0.0000000   0.0000000   0.0000000   0.0000000   0.0000000
 NMagM=    2.7928460   2.7928460   2.7928460   2.7928460   2.7928460   2.7928460   0.0000000   0.0000000   0.0000000   0.0000000
 AtZNuc=   1.0000000   1.0000000   1.0000000   1.0000000   1.0000000   1.0000000   6.0000000   6.0000000   6.0000000   6.0000000

  Atom        51          52          53          54          55          56          57          58          59          60
 IAtWgt=          12          12          12          12          12          12          12          12           1           1
 AtmWgt=  12.0000000  12.0000000  12.0000000  12.0000000  12.0000000  12.0000000  12.0000000  12.0000000   1.0078250   1.0078250
 NucSpn=           0           0           0           0           0           0           0           0           1           1
 AtZEff=  -0.0000000  -0.0000000  -0.0000000  -0.0000000  -0.0000000  -0.0000000  -0.0000000  -0.0000000  -0.0000000  -0.0000000
 NQMom=    0.0000000   0.0000000   0.0000000   0.0000000   0.0000000   0.0000000   0.0000000   0.0000000   0.0000000   0.0000000
 NMagM=    0.0000000   0.0000000   0.0000000   0.0000000   0.0000000   0.0000000   0.0000000   0.0000000   2.7928460   2.7928460
 AtZNuc=   6.0000000   6.0000000   6.0000000   6.0000000   6.0000000   6.0000000   6.0000000   6.0000000   1.0000000   1.0000000

  Atom        61          62          63          64          65          66          67          68          69          70
 IAtWgt=           1           1           1           1           1           1           1           1           1           1
 AtmWgt=   1.0078250   1.0078250   1.0078250   1.0078250   1.0078250   1.0078250   1.0078250   1.0078250   1.0078250   1.0078250
 NucSpn=           1           1           1           1           1           1           1           1           1           1
 AtZEff=  -0.0000000  -0.0000000  -0.0000000  -0.0000000  -0.0000000  -0.0000000  -0.0000000  -0.0000000  -0.0000000  -0.0000000
 NQMom=    0.0000000   0.0000000   0.0000000   0.0000000   0.0000000   0.0000000   0.0000000   0.0000000   0.0000000   0.0000000
 NMagM=    2.7928460   2.7928460   2.7928460   2.7928460   2.7928460   2.7928460   2.7928460   2.7928460   2.7928460   2.7928460
 AtZNuc=   1.0000000   1.0000000   1.0000000   1.0000000   1.0000000   1.0000000   1.0000000   1.0000000   1.0000000   1.0000000

  Atom        71          72          73          74          75          76          77
 IAtWgt=          12          12          12          12           1           1           1
 AtmWgt=  12.0000000  12.0000000  12.0000000  12.0000000   1.0078250   1.0078250   1.0078250
 NucSpn=           0           0           0           0           1           1           1
 AtZEff=  -0.0000000  -0.0000000  -0.0000000  -0.0000000  -0.0000000  -0.0000000  -0.0000000
 NQMom=    0.0000000   0.0000000   0.0000000   0.0000000   0.0000000   0.0000000   0.0000000
 NMagM=    0.0000000   0.0000000   0.0000000   0.0000000   2.7928460   2.7928460   2.7928460
 AtZNuc=   6.0000000   6.0000000   6.0000000   6.0000000   1.0000000   1.0000000   1.0000000
 Leave Link  101 at Fri Nov  7 11:10:35 2025, MaxMem=   104857600 cpu:               0.0 elap:               0.0
 (Enter /sw/cluster/pub/apps//g16/l202.exe)
 Symmetry turned off by external request.
 Stoichiometry    C43H34
 Framework group  C1[X(C43H34)]
 Deg. of freedom   225
 Full point group                 C1      NOp   1
                          Input orientation:                          
 ---------------------------------------------------------------------
 Center     Atomic      Atomic             Coordinates (Angstroms)
 Number     Number       Type             X           Y           Z
 ---------------------------------------------------------------------
      1          6           0        0.017447   -0.594552    0.270012
      2          6           0       -0.688562    0.956600    2.458117
      3          1           0        0.934575    1.185795    1.045319
      4          1           0       -0.654139    1.469796    0.385621
      5          6           0        0.765627   -1.109558   -2.349729
      6          1           0       -0.526132    3.138361    2.247898
      7          1           0       -0.809082    0.152262   -1.566263
      8          1           0        0.859479    2.391187    3.067887
      9          1           0       -0.681286    2.586481    3.927126
     10          1           0        0.807397    0.728195   -1.262597
     11          6           0        1.153122   -1.453773    0.831222
     12          6           0        2.290586   -1.236535   -2.305501
     13          6           0       -0.334737   -0.087501    3.519842
     14          6           0        2.682026   -2.588501   -2.318734
     15          6           0       -1.503928   -0.622860    4.098151
     16          6           0        0.663710   -2.692784    1.287216
     17          6           0       -0.783346   -2.737868    1.056985
     18          6           0       -2.671320   -0.007127    3.457706
     19          6           0        1.475033   -3.421610   -2.349729
     20          6           0       -2.217959    0.908198    2.489432
     21          6           0        0.343326   -2.580501   -2.349729
     22          6           0       -1.182938   -1.525043    0.463531
     23          6           0       -2.515268   -1.327000    0.114875
     24          6           0       -0.930911   -3.130259   -2.446453
     25          6           0       -3.129264    1.669049    1.764773
     26          6           0       -3.448765   -2.336592    0.373475
     27          6           0       -4.499586    1.495436    1.992414
     28          6           0       -1.073432   -4.520565   -2.507830
     29          6           0       -4.948909    0.573404    2.943705
     30          6           0        0.050081   -5.353576   -2.486362
     31          6           0       -3.049155   -3.537822    0.968553
     32          6           0       -1.712782   -3.746806    1.313535
     33          6           0        1.333135   -4.809221   -2.412181
     34          6           0       -4.037600   -0.181068    3.685872
     35          1           0       -4.391218   -0.889965    4.430312
     36          1           0        2.205729   -5.457673   -2.410238
     37          1           0       -1.403452   -4.684296    1.768381
     38          1           0       -3.784782   -4.313904    1.164092
     39          1           0       -0.076658   -6.432102   -2.534078
     40          1           0       -6.015529    0.448493    3.111501
     41          1           0       -4.492973   -2.181379    0.115929
     42          1           0       -5.218946    2.084418    1.429290
     43          1           0       -2.067391   -4.955259   -2.568342
     44          1           0       -2.843612   -0.395819   -0.338136
     45          1           0       -2.791131    2.393721    1.026717
     46          1           0       -1.812764   -2.497154   -2.455779
     47          6           0        1.523111   -3.632636    1.857823
     48          6           0        4.034062   -2.936425   -2.323741
     49          6           0       -1.425676   -1.552334    5.137177
     50          6           0        2.879607   -3.324311    1.974334
     51          6           0        4.993722   -1.921754   -2.323482
     52          6           0       -0.168201   -1.936979    5.604990
     53          6           0        3.368300   -2.092149    1.527388
     54          6           0        4.606389   -0.577514   -2.327759
     55          6           0        0.992783   -1.390669    5.047951
     56          6           0        3.250270   -0.229946   -2.323310
     57          6           0        0.913927   -0.458048    4.008216
     58          6           0        2.504897   -1.150125    0.957452
     59          1           0        2.961033    0.819057   -2.333585
     60          1           0        1.824654   -0.048006    3.582592
     61          1           0        2.901433   -0.202440    0.604381
     62          1           0        4.427548   -1.866108    1.615049
     63          1           0        5.363287    0.202521   -2.339154
     64          1           0        1.966395   -1.694611    5.422540
     65          1           0        3.561370   -4.047505    2.414663
     66          1           0        6.049936   -2.178359   -2.327455
     67          1           0       -0.090723   -2.660899    6.412142
     68          1           0        1.144821   -4.588113    2.211962
     69          1           0        4.339766   -3.979618   -2.329082
     70          1           0       -2.327573   -1.966068    5.581415
     71          6           0        0.185177   -0.176151   -1.237966
     72          6           0       -0.230287    2.356079    2.957113
     73          6           0       -0.085809    0.782510    1.026193
     74          6           0        0.363890   -0.472295   -3.709834
     75          1           0        0.705916    0.567965   -3.769402
     76          1           0       -0.724850   -0.480718   -3.834982
     77          1           0        0.809164   -1.026106   -4.541975
 ---------------------------------------------------------------------
 Rotational constants (GHZ):           0.1468828           0.0749106           0.0690925
 Leave Link  202 at Fri Nov  7 11:10:35 2025, MaxMem=   104857600 cpu:               0.0 elap:               0.0
 (Enter /sw/cluster/pub/apps//g16/l301.exe)
 Standard basis: 6-31G(d) (6D, 7F)
 Ernie: Thresh=  0.10000D-02 Tol=  0.10000D-05 Strict=F.
   713 basis functions,  1340 primitive gaussians,   713 cartesian basis functions
   146 alpha electrons      146 beta electrons
       nuclear repulsion energy      5165.8627766033 Hartrees.
 IExCor=  402 DFT=T Ex+Corr=B3LYP ExCW=0 ScaHFX=  0.200000
 ScaDFX=  0.800000  0.720000  1.000000  0.810000 ScalE2=  1.000000  1.000000
 IRadAn=      5 IRanWt=     -1 IRanGd=            0 ICorTp=0 IEmpDi=  4
 NAtoms=   77 NActive=   77 NUniq=   77 SFac= 1.00D+00 NAtFMM=   60 NAOKFM=T Big=T
 Integral buffers will be    131072 words long.
 Raffenetti 2 integral format.
 Two-electron integral symmetry is turned off.
 Leave Link  301 at Fri Nov  7 11:10:37 2025, MaxMem=   104857600 cpu:               0.0 elap:               0.2
 (Enter /sw/cluster/pub/apps//g16/l302.exe)
 NPDir=0 NMtPBC=     1 NCelOv=     1 NCel=       1 NClECP=     1 NCelD=      1
         NCelK=      1 NCelE2=     1 NClLst=     1 CellRange=     0.0.
 One-electron integrals computed using PRISM.
 NBasis=   713 RedAO= T EigKep=  3.43D-04  NBF=   713
 NBsUse=   713 1.00D-06 EigRej= -1.00D+00 NBFU=   713
 Precomputing XC quadrature grid using
 IXCGrd= 4 IRadAn=           5 IRanWt=          -1 IRanGd=           0 AccXCQ= 0.00D+00.
 Generated NRdTot=       0 NPtTot=           0 NUsed=           0 NTot=          32
 NSgBfM=   701   700   700   700   701 MxSgAt=    77 MxSgA2=    77.
 Leave Link  302 at Fri Nov  7 11:10:40 2025, MaxMem=   104857600 cpu:               3.5 elap:               3.5
 (Enter /sw/cluster/pub/apps//g16/l303.exe)
 DipDrv:  MaxL=1.
 Leave Link  303 at Fri Nov  7 11:10:42 2025, MaxMem=   104857600 cpu:               0.0 elap:               0.2
 (Enter /sw/cluster/pub/apps//g16/l401.exe)
 ExpMin= 1.61D-01 ExpMax= 3.05D+03 ExpMxC= 4.57D+02 IAcc=3 IRadAn=         5 AccDes= 0.00D+00
 Harris functional with IExCor=  402 and IRadAn=       5 diagonalized for initial guess.
 HarFok:  IExCor=  402 AccDes= 0.00D+00 IRadAn=         5 IDoV= 1 UseB2=F ITyADJ=14
 ICtDFT=  3500011 ScaDFX=  1.000000  1.000000  1.000000  1.000000
 FoFCou: FMM=F IPFlag=           0 FMFlag=      100000 FMFlg1=        2001
         NFxFlg=           0 DoJE=T BraDBF=F KetDBF=T FulRan=T
         wScrn=  0.000000 ICntrl=       500 IOpCl=  0 I1Cent=   200000004 NGrid=           0
         NMat0=    1 NMatS0=      1 NMatT0=    0 NMatD0=    1 NMtDS0=    0 NMtDT0=    0
 Symmetry not used in FoFCou.
 Harris En= -1659.11361060338    
 JPrj=0 DoOrth=F DoCkMO=F.
 Leave Link  401 at Fri Nov  7 11:11:06 2025, MaxMem=   104857600 cpu:              23.7 elap:              23.8
 (Enter /sw/cluster/pub/apps//g16/l502.exe)
 Two-electron integral symmetry not used.
 Closed shell SCF:
 Using DIIS extrapolation, IDIIS=  1040.
 NGot=   104857600 LenX=   103830460 LenY=   103321378
 Requested convergence on RMS density matrix=1.00D-08 within 128 cycles.
 Requested convergence on MAX density matrix=1.00D-06.
 Requested convergence on             energy=1.00D-06.
 No special actions if energy rises.
 Fock matrices will be formed incrementally for  20 cycles.
 Integral accuracy reduced to 1.0D-05 until final iterations.

 Cycle   1  Pass 0  IDiag  1:
 FoFJK:  IHMeth= 1 ICntrl=       0 DoSepK=F KAlg= 0 I1Cent=           0 FoldK=F
 IRaf= 990000000 NMat=       1 IRICut=       1 DoRegI=T DoRafI=F ISym2E= 0 IDoP0=0 IntGTp=1.
 FoFCou: FMM=T IPFlag=           0 FMFlag=      100000 FMFlg1=        2001
         NFxFlg=           0 DoJE=F BraDBF=F KetDBF=F FulRan=T
         wScrn=  0.000000 ICntrl=         0 IOpCl=  0 I1Cent=           0 NGrid=           0
         NMat0=    1 NMatS0=      1 NMatT0=    0 NMatD0=    1 NMtDS0=    0 NMtDT0=    0
 Symmetry not used in FoFCou.
 FMM levels:  10  Number of levels for PrismC:   9
 E= -1658.17593388877    
 DIIS: error= 3.11D-02 at cycle   1 NSaved=   1.
 NSaved= 1 IEnMin= 1 EnMin= -1658.17593388877     IErMin= 1 ErrMin= 3.11D-02
 ErrMax= 3.11D-02  0.00D+00 EMaxC= 1.00D-01 BMatC= 8.23D-01 BMatP= 8.23D-01
 IDIUse=3 WtCom= 6.89D-01 WtEn= 3.11D-01
 Coeff-Com:  0.100D+01
 Coeff-En:   0.100D+01
 Coeff:      0.100D+01
 Gap=     0.181 Goal=   None    Shift=    0.000
 GapD=    0.181 DampG=1.000 DampE=0.500 DampFc=0.5000 IDamp=-1.
 Damping current iteration by 5.00D-01
 RMSDP=3.33D-03 MaxDP=1.28D-01              OVMax= 1.47D-01

 Cycle   2  Pass 0  IDiag  1:
 RMSU=  1.60D-03    CP:  9.64D-01
 E= -1658.61531306875     Delta-E=       -0.439379179976 Rises=F Damp=T
 DIIS: error= 5.28D-03 at cycle   2 NSaved=   2.
 NSaved= 2 IEnMin= 2 EnMin= -1658.61531306875     IErMin= 2 ErrMin= 5.28D-03
 ErrMax= 5.28D-03  0.00D+00 EMaxC= 1.00D-01 BMatC= 4.61D-02 BMatP= 8.23D-01
 IDIUse=3 WtCom= 9.47D-01 WtEn= 5.28D-02
 Coeff-Com: -0.172D-01 0.102D+01
 Coeff-En:   0.000D+00 0.100D+01
 Coeff:     -0.163D-01 0.102D+01
 Gap=     0.190 Goal=   None    Shift=    0.000
 RMSDP=1.18D-03 MaxDP=5.21D-02 DE=-4.39D-01 OVMax= 8.60D-02

 Cycle   3  Pass 0  IDiag  1:
 RMSU=  1.13D-03    CP:  9.37D-01  9.91D-01
 E= -1659.07424857708     Delta-E=       -0.458935508333 Rises=F Damp=F
 DIIS: error= 3.32D-03 at cycle   3 NSaved=   3.
 NSaved= 3 IEnMin= 3 EnMin= -1659.07424857708     IErMin= 3 ErrMin= 3.32D-03
 ErrMax= 3.32D-03  0.00D+00 EMaxC= 1.00D-01 BMatC= 1.41D-02 BMatP= 4.61D-02
 IDIUse=3 WtCom= 9.67D-01 WtEn= 3.32D-02
 Coeff-Com: -0.511D-01 0.334D+00 0.717D+00
 Coeff-En:   0.000D+00 0.000D+00 0.100D+01
 Coeff:     -0.494D-01 0.323D+00 0.727D+00
 Gap=     0.186 Goal=   None    Shift=    0.000
 RMSDP=4.78D-04 MaxDP=1.51D-02 DE=-4.59D-01 OVMax= 4.25D-02

 Cycle   4  Pass 0  IDiag  1:
 RMSU=  3.17D-04    CP:  9.41D-01  1.07D+00  7.03D-01
 E= -1659.07534329422     Delta-E=       -0.001094717141 Rises=F Damp=F
 DIIS: error= 3.82D-03 at cycle   4 NSaved=   4.
 NSaved= 4 IEnMin= 4 EnMin= -1659.07534329422     IErMin= 3 ErrMin= 3.32D-03
 ErrMax= 3.82D-03  0.00D+00 EMaxC= 1.00D-01 BMatC= 1.30D-02 BMatP= 1.41D-02
 IDIUse=3 WtCom= 9.62D-01 WtEn= 3.82D-02
 Coeff-Com: -0.345D-01 0.152D+00 0.506D+00 0.377D+00
 Coeff-En:   0.000D+00 0.000D+00 0.483D+00 0.517D+00
 Coeff:     -0.332D-01 0.146D+00 0.505D+00 0.383D+00
 Gap=     0.179 Goal=   None    Shift=    0.000
 RMSDP=2.33D-04 MaxDP=9.02D-03 DE=-1.09D-03 OVMax= 2.88D-02

 Cycle   5  Pass 0  IDiag  1:
 RMSU=  9.89D-05    CP:  9.39D-01  1.06D+00  8.06D-01  4.48D-01
 E= -1659.08858752197     Delta-E=       -0.013244227747 Rises=F Damp=F
 DIIS: error= 8.93D-04 at cycle   5 NSaved=   5.
 NSaved= 5 IEnMin= 5 EnMin= -1659.08858752197     IErMin= 5 ErrMin= 8.93D-04
 ErrMax= 8.93D-04  0.00D+00 EMaxC= 1.00D-01 BMatC= 7.89D-04 BMatP= 1.30D-02
 IDIUse=3 WtCom= 9.91D-01 WtEn= 8.93D-03
 Coeff-Com: -0.109D-01 0.318D-01 0.179D+00 0.228D+00 0.572D+00
 Coeff-En:   0.000D+00 0.000D+00 0.000D+00 0.371D-01 0.963D+00
 Coeff:     -0.109D-01 0.315D-01 0.178D+00 0.226D+00 0.575D+00
 Gap=     0.179 Goal=   None    Shift=    0.000
 RMSDP=6.30D-05 MaxDP=4.93D-03 DE=-1.32D-02 OVMax= 7.60D-03

 Cycle   6  Pass 0  IDiag  1:
 RMSU=  3.94D-05    CP:  9.39D-01  1.06D+00  7.99D-01  5.17D-01  5.62D-01
 E= -1659.08927506079     Delta-E=       -0.000687538821 Rises=F Damp=F
 DIIS: error= 3.83D-04 at cycle   6 NSaved=   6.
 NSaved= 6 IEnMin= 6 EnMin= -1659.08927506079     IErMin= 6 ErrMin= 3.83D-04
 ErrMax= 3.83D-04  0.00D+00 EMaxC= 1.00D-01 BMatC= 1.38D-04 BMatP= 7.89D-04
 IDIUse=3 WtCom= 9.96D-01 WtEn= 3.83D-03
 Coeff-Com: -0.435D-02 0.874D-02 0.749D-01 0.115D+00 0.382D+00 0.423D+00
 Coeff-En:   0.000D+00 0.000D+00 0.000D+00 0.000D+00 0.156D+00 0.844D+00
 Coeff:     -0.433D-02 0.871D-02 0.746D-01 0.115D+00 0.381D+00 0.425D+00
 Gap=     0.178 Goal=   None    Shift=    0.000
 RMSDP=2.43D-05 MaxDP=1.94D-03 DE=-6.88D-04 OVMax= 2.95D-03

 Cycle   7  Pass 0  IDiag  1:
 RMSU=  8.33D-06    CP:  9.39D-01  1.06D+00  8.03D-01  5.15D-01  6.47D-01
                    CP:  4.72D-01
 E= -1659.08943945380     Delta-E=       -0.000164393015 Rises=F Damp=F
 DIIS: error= 9.43D-05 at cycle   7 NSaved=   7.
 NSaved= 7 IEnMin= 7 EnMin= -1659.08943945380     IErMin= 7 ErrMin= 9.43D-05
 ErrMax= 9.43D-05  0.00D+00 EMaxC= 1.00D-01 BMatC= 5.71D-06 BMatP= 1.38D-04
 IDIUse=1 WtCom= 1.00D+00 WtEn= 0.00D+00
 Coeff-Com: -0.184D-02 0.302D-02 0.325D-01 0.530D-01 0.189D+00 0.248D+00
 Coeff-Com:  0.477D+00
 Coeff:     -0.184D-02 0.302D-02 0.325D-01 0.530D-01 0.189D+00 0.248D+00
 Coeff:      0.477D+00
 Gap=     0.178 Goal=   None    Shift=    0.000
 RMSDP=4.90D-06 MaxDP=2.25D-04 DE=-1.64D-04 OVMax= 7.86D-04

 Initial convergence to 1.0D-05 achieved.  Increase integral accuracy.
 Cycle   8  Pass 1  IDiag  1:
 E= -1659.08940105941     Delta-E=        0.000038394391 Rises=F Damp=F
 DIIS: error= 3.38D-04 at cycle   1 NSaved=   1.
 NSaved= 1 IEnMin= 1 EnMin= -1659.08940105941     IErMin= 1 ErrMin= 3.38D-04
 ErrMax= 3.38D-04  0.00D+00 EMaxC= 1.00D-01 BMatC= 3.33D-05 BMatP= 3.33D-05
 IDIUse=3 WtCom= 9.97D-01 WtEn= 3.38D-03
 Coeff-Com:  0.100D+01
 Coeff-En:   0.100D+01
 Coeff:      0.100D+01
 Gap=     0.178 Goal=   None    Shift=    0.000
 RMSDP=4.90D-06 MaxDP=2.25D-04 DE= 3.84D-05 OVMax= 8.23D-04

 Cycle   9  Pass 1  IDiag  1:
 RMSU=  1.59D-04    CP:  1.00D+00
 E= -1659.08942752453     Delta-E=       -0.000026465117 Rises=F Damp=F
 DIIS: error= 6.25D-05 at cycle   2 NSaved=   2.
 NSaved= 2 IEnMin= 2 EnMin= -1659.08942752453     IErMin= 2 ErrMin= 6.25D-05
 ErrMax= 6.25D-05  0.00D+00 EMaxC= 1.00D-01 BMatC= 2.53D-06 BMatP= 3.33D-05
 IDIUse=1 WtCom= 1.00D+00 WtEn= 0.00D+00
 Coeff-Com:  0.906D-01 0.909D+00
 Coeff:      0.906D-01 0.909D+00
 Gap=     0.178 Goal=   None    Shift=    0.000
 RMSDP=8.15D-06 MaxDP=4.19D-04 DE=-2.65D-05 OVMax= 1.32D-03

 Cycle  10  Pass 1  IDiag  1:
 RMSU=  8.00D-06    CP:  1.00D+00  1.01D+00
 E= -1659.08941916052     Delta-E=        0.000008364012 Rises=F Damp=F
 DIIS: error= 1.27D-04 at cycle   3 NSaved=   3.
 NSaved= 3 IEnMin= 2 EnMin= -1659.08942752453     IErMin= 2 ErrMin= 6.25D-05
 ErrMax= 1.27D-04  0.00D+00 EMaxC= 1.00D-01 BMatC= 9.69D-06 BMatP= 2.53D-06
 IDIUse=3 WtCom= 4.70D-01 WtEn= 5.30D-01
 Coeff-Com: -0.445D-02 0.665D+00 0.340D+00
 Coeff-En:   0.000D+00 0.735D+00 0.265D+00
 Coeff:     -0.209D-02 0.702D+00 0.300D+00
 Gap=     0.178 Goal=   None    Shift=    0.000
 RMSDP=4.74D-06 MaxDP=2.37D-04 DE= 8.36D-06 OVMax= 7.77D-04

 Cycle  11  Pass 1  IDiag  1:
 RMSU=  6.87D-07    CP:  1.00D+00  1.01D+00  4.15D-01
 E= -1659.08943025007     Delta-E=       -0.000011089548 Rises=F Damp=F
 DIIS: error= 1.35D-05 at cycle   4 NSaved=   4.
 NSaved= 4 IEnMin= 4 EnMin= -1659.08943025007     IErMin= 4 ErrMin= 1.35D-05
 ErrMax= 1.35D-05  0.00D+00 EMaxC= 1.00D-01 BMatC= 1.81D-07 BMatP= 2.53D-06
 IDIUse=1 WtCom= 1.00D+00 WtEn= 0.00D+00
 Coeff-Com: -0.367D-02 0.410D+00 0.156D+00 0.438D+00
 Coeff:     -0.367D-02 0.410D+00 0.156D+00 0.438D+00
 Gap=     0.178 Goal=   None    Shift=    0.000
 RMSDP=7.18D-07 MaxDP=3.93D-05 DE=-1.11D-05 OVMax= 1.07D-04

 Cycle  12  Pass 1  IDiag  1:
 RMSU=  2.21D-07    CP:  1.00D+00  1.01D+00  3.40D-01  5.24D-01
 E= -1659.08943044938     Delta-E=       -0.000000199310 Rises=F Damp=F
 DIIS: error= 1.66D-06 at cycle   5 NSaved=   5.
 NSaved= 5 IEnMin= 5 EnMin= -1659.08943044938     IErMin= 5 ErrMin= 1.66D-06
 ErrMax= 1.66D-06  0.00D+00 EMaxC= 1.00D-01 BMatC= 2.33D-09 BMatP= 1.81D-07
 IDIUse=1 WtCom= 1.00D+00 WtEn= 0.00D+00
 Coeff-Com: -0.217D-02 0.236D+00 0.867D-01 0.279D+00 0.401D+00
 Coeff:     -0.217D-02 0.236D+00 0.867D-01 0.279D+00 0.401D+00
 Gap=     0.178 Goal=   None    Shift=    0.000
 RMSDP=1.03D-07 MaxDP=5.56D-06 DE=-1.99D-07 OVMax= 1.42D-05

 Cycle  13  Pass 1  IDiag  1:
 RMSU=  8.56D-08    CP:  1.00D+00  1.01D+00  3.41D-01  5.76D-01  8.03D-01
 E= -1659.08943045168     Delta-E=       -0.000000002301 Rises=F Damp=F
 DIIS: error= 5.33D-07 at cycle   6 NSaved=   6.
 NSaved= 6 IEnMin= 6 EnMin= -1659.08943045168     IErMin= 6 ErrMin= 5.33D-07
 ErrMax= 5.33D-07  0.00D+00 EMaxC= 1.00D-01 BMatC= 2.56D-10 BMatP= 2.33D-09
 IDIUse=1 WtCom= 1.00D+00 WtEn= 0.00D+00
 Coeff-Com: -0.680D-03 0.716D-01 0.251D-01 0.942D-01 0.261D+00 0.548D+00
 Coeff:     -0.680D-03 0.716D-01 0.251D-01 0.942D-01 0.261D+00 0.548D+00
 Gap=     0.178 Goal=   None    Shift=    0.000
 RMSDP=3.50D-08 MaxDP=1.45D-06 DE=-2.30D-09 OVMax= 4.10D-06

 Cycle  14  Pass 1  IDiag  1:
 RMSU=  2.07D-08    CP:  1.00D+00  1.01D+00  3.40D-01  5.72D-01  8.36D-01
                    CP:  6.88D-01
 E= -1659.08943045189     Delta-E=       -0.000000000211 Rises=F Damp=F
 DIIS: error= 1.22D-07 at cycle   7 NSaved=   7.
 NSaved= 7 IEnMin= 7 EnMin= -1659.08943045189     IErMin= 7 ErrMin= 1.22D-07
 ErrMax= 1.22D-07  0.00D+00 EMaxC= 1.00D-01 BMatC= 2.00D-11 BMatP= 2.56D-10
 IDIUse=1 WtCom= 1.00D+00 WtEn= 0.00D+00
 Coeff-Com: -0.123D-03 0.122D-01 0.385D-02 0.195D-01 0.980D-01 0.297D+00
 Coeff-Com:  0.569D+00
 Coeff:     -0.123D-03 0.122D-01 0.385D-02 0.195D-01 0.980D-01 0.297D+00
 Coeff:      0.569D+00
 Gap=     0.178 Goal=   None    Shift=    0.000
 RMSDP=1.02D-08 MaxDP=4.57D-07 DE=-2.11D-10 OVMax= 1.10D-06

 Cycle  15  Pass 1  IDiag  1:
 RMSU=  6.63D-09    CP:  1.00D+00  1.01D+00  3.40D-01  5.74D-01  8.41D-01
                    CP:  7.33D-01  6.92D-01
 E= -1659.08943045192     Delta-E=       -0.000000000035 Rises=F Damp=F
 DIIS: error= 6.02D-08 at cycle   8 NSaved=   8.
 NSaved= 8 IEnMin= 8 EnMin= -1659.08943045192     IErMin= 8 ErrMin= 6.02D-08
 ErrMax= 6.02D-08  0.00D+00 EMaxC= 1.00D-01 BMatC= 2.66D-12 BMatP= 2.00D-11
 IDIUse=1 WtCom= 1.00D+00 WtEn= 0.00D+00
 Coeff-Com:  0.279D-05-0.746D-03-0.494D-03 0.979D-03 0.275D-01 0.108D+00
 Coeff-Com:  0.327D+00 0.538D+00
 Coeff:      0.279D-05-0.746D-03-0.494D-03 0.979D-03 0.275D-01 0.108D+00
 Coeff:      0.327D+00 0.538D+00
 Gap=     0.178 Goal=   None    Shift=    0.000
 RMSDP=3.44D-09 MaxDP=1.88D-07 DE=-3.46D-11 OVMax= 4.23D-07

 SCF Done:  E(RB3LYP) =  -1659.08943045     A.U. after   15 cycles
            NFock= 15  Conv=0.34D-08     -V/T= 2.0098
 KE= 1.642974807519D+03 PE=-1.417390471040D+04 EE= 5.705977695828D+03
 Leave Link  502 at Fri Nov  7 11:21:47 2025, MaxMem=   104857600 cpu:             640.8 elap:             641.6
 (Enter /sw/cluster/pub/apps//g16/l601.exe)
 Copying SCF densities to generalized density rwf, IOpCl= 0 IROHF=0.

 **********************************************************************

            Population analysis using the SCF density.

 **********************************************************************

 Alpha  occ. eigenvalues --  -10.20720 -10.20568 -10.20565 -10.19231 -10.19224
 Alpha  occ. eigenvalues --  -10.18503 -10.18488 -10.18448 -10.18433 -10.18417
 Alpha  occ. eigenvalues --  -10.18404 -10.18391 -10.18378 -10.18338 -10.18325
 Alpha  occ. eigenvalues --  -10.18289 -10.18276 -10.18218 -10.18215 -10.18088
 Alpha  occ. eigenvalues --  -10.18087 -10.18053 -10.18053 -10.18023 -10.18014
 Alpha  occ. eigenvalues --  -10.18006 -10.18000 -10.18000 -10.17990 -10.17963
 Alpha  occ. eigenvalues --  -10.17947 -10.17934 -10.17920 -10.17906 -10.17905
 Alpha  occ. eigenvalues --  -10.17887 -10.17877 -10.17874 -10.17853 -10.17835
 Alpha  occ. eigenvalues --  -10.17831 -10.17814 -10.17808  -0.88555  -0.87970
 Alpha  occ. eigenvalues --   -0.87208  -0.83437  -0.83368  -0.83076  -0.81666
 Alpha  occ. eigenvalues --   -0.80384  -0.78864  -0.76818  -0.76523  -0.75677
 Alpha  occ. eigenvalues --   -0.73461  -0.73333  -0.73103  -0.72999  -0.72425
 Alpha  occ. eigenvalues --   -0.70863  -0.70417  -0.70411  -0.70171  -0.67240
 Alpha  occ. eigenvalues --   -0.64152  -0.63688  -0.63554  -0.61818  -0.61241
 Alpha  occ. eigenvalues --   -0.61124  -0.57667  -0.57540  -0.57257  -0.56697
 Alpha  occ. eigenvalues --   -0.56651  -0.56541  -0.56343  -0.54640  -0.54272
 Alpha  occ. eigenvalues --   -0.50693  -0.50055  -0.49893  -0.49165  -0.48706
 Alpha  occ. eigenvalues --   -0.48191  -0.46968  -0.46170  -0.45641  -0.44849
 Alpha  occ. eigenvalues --   -0.44701  -0.44363  -0.44070  -0.43548  -0.43507
 Alpha  occ. eigenvalues --   -0.43081  -0.43024  -0.42889  -0.42736  -0.42098
 Alpha  occ. eigenvalues --   -0.41500  -0.41132  -0.40954  -0.40844  -0.40779
 Alpha  occ. eigenvalues --   -0.40747  -0.40353  -0.40234  -0.38305  -0.38274
 Alpha  occ. eigenvalues --   -0.37695  -0.37629  -0.37391  -0.37368  -0.37306
 Alpha  occ. eigenvalues --   -0.36640  -0.36519  -0.35520  -0.34685  -0.34326
 Alpha  occ. eigenvalues --   -0.34085  -0.34056  -0.33841  -0.33719  -0.33406
 Alpha  occ. eigenvalues --   -0.33253  -0.32994  -0.32098  -0.32022  -0.31584
 Alpha  occ. eigenvalues --   -0.31156  -0.30983  -0.30687  -0.30305  -0.27247
 Alpha  occ. eigenvalues --   -0.27146  -0.26857  -0.24553  -0.24520  -0.23901
 Alpha  occ. eigenvalues --   -0.23573  -0.23292  -0.22008  -0.20557  -0.20511
 Alpha  occ. eigenvalues --   -0.20109
 Alpha virt. eigenvalues --   -0.02300  -0.02272  -0.01951  -0.00708  -0.00297
 Alpha virt. eigenvalues --    0.00295   0.01618   0.01845   0.01907   0.04969
 Alpha virt. eigenvalues --    0.05073   0.05360   0.07429   0.09380   0.10452
 Alpha virt. eigenvalues --    0.10580   0.10903   0.10927   0.10969   0.11087
 Alpha virt. eigenvalues --    0.11961   0.13046   0.13461   0.13704   0.13997
 Alpha virt. eigenvalues --    0.14134   0.14187   0.14690   0.14785   0.15853
 Alpha virt. eigenvalues --    0.16263   0.16514   0.16587   0.16735   0.16856
 Alpha virt. eigenvalues --    0.17175   0.17228   0.17572   0.17781   0.18515
 Alpha virt. eigenvalues --    0.18550   0.19034   0.19128   0.19702   0.20647
 Alpha virt. eigenvalues --    0.21029   0.21424   0.21630   0.21829   0.22142
 Alpha virt. eigenvalues --    0.22174   0.22509   0.23551   0.23841   0.24142
 Alpha virt. eigenvalues --    0.24842   0.25009   0.25786   0.26055   0.26488
 Alpha virt. eigenvalues --    0.26655   0.27084   0.27255   0.27518   0.27579
 Alpha virt. eigenvalues --    0.28013   0.28435   0.29240   0.30066   0.30643
 Alpha virt. eigenvalues --    0.30720   0.31071   0.32229   0.32291   0.32555
 Alpha virt. eigenvalues --    0.33059   0.33348   0.33703   0.34994   0.37629
 Alpha virt. eigenvalues --    0.37650   0.38259   0.38378   0.39115   0.40320
 Alpha virt. eigenvalues --    0.40476   0.40516   0.40718   0.41271   0.41294
 Alpha virt. eigenvalues --    0.41734   0.43576   0.44319   0.45563   0.46270
 Alpha virt. eigenvalues --    0.48528   0.48999   0.49444   0.49867   0.50264
 Alpha virt. eigenvalues --    0.50650   0.51000   0.51666   0.52011   0.52986
 Alpha virt. eigenvalues --    0.53116   0.53332   0.53744   0.54179   0.54662
 Alpha virt. eigenvalues --    0.55198   0.55405   0.55706   0.55791   0.56004
 Alpha virt. eigenvalues --    0.56245   0.56357   0.56594   0.56700   0.57141
 Alpha virt. eigenvalues --    0.57361   0.57380   0.57796   0.58250   0.58498
 Alpha virt. eigenvalues --    0.58530   0.59413   0.59720   0.60018   0.60049
 Alpha virt. eigenvalues --    0.60380   0.60608   0.60890   0.61322   0.61373
 Alpha virt. eigenvalues --    0.61459   0.61613   0.61985   0.62465   0.62693
 Alpha virt. eigenvalues --    0.62711   0.63560   0.63635   0.63741   0.63817
 Alpha virt. eigenvalues --    0.64019   0.64417   0.64885   0.65018   0.65155
 Alpha virt. eigenvalues --    0.65397   0.66041   0.66807   0.66874   0.67044
 Alpha virt. eigenvalues --    0.67717   0.68358   0.68439   0.69584   0.69600
 Alpha virt. eigenvalues --    0.70456   0.71177   0.71636   0.72169   0.72291
 Alpha virt. eigenvalues --    0.72921   0.74261   0.74606   0.74937   0.75067
 Alpha virt. eigenvalues --    0.76211   0.77565   0.77847   0.77971   0.78972
 Alpha virt. eigenvalues --    0.79197   0.80429   0.80551   0.81107   0.81217
 Alpha virt. eigenvalues --    0.81441   0.81583   0.82155   0.82462   0.83004
 Alpha virt. eigenvalues --    0.83367   0.83768   0.84175   0.84436   0.84671
 Alpha virt. eigenvalues --    0.84881   0.85082   0.85287   0.85552   0.85649
 Alpha virt. eigenvalues --    0.86028   0.86431   0.86665   0.86921   0.87548
 Alpha virt. eigenvalues --    0.87631   0.88092   0.88186   0.88254   0.89404
 Alpha virt. eigenvalues --    0.89872   0.90769   0.90862   0.91595   0.91662
 Alpha virt. eigenvalues --    0.92016   0.92195   0.92678   0.92688   0.92891
 Alpha virt. eigenvalues --    0.93398   0.93679   0.94200   0.94778   0.95304
 Alpha virt. eigenvalues --    0.95372   0.96011   0.96029   0.96524   0.96840
 Alpha virt. eigenvalues --    0.98053   0.98568   0.98996   0.99119   0.99298
 Alpha virt. eigenvalues --    0.99754   0.99930   0.99986   1.00820   1.01250
 Alpha virt. eigenvalues --    1.02233   1.02412   1.03167   1.03434   1.04098
 Alpha virt. eigenvalues --    1.05163   1.05461   1.05523   1.06121   1.06665
 Alpha virt. eigenvalues --    1.07354   1.07495   1.08075   1.08609   1.10375
 Alpha virt. eigenvalues --    1.11018   1.11601   1.12655   1.12886   1.14078
 Alpha virt. eigenvalues --    1.14539   1.14764   1.15127   1.17101   1.17257
 Alpha virt. eigenvalues --    1.18483   1.18778   1.19218   1.19469   1.19998
 Alpha virt. eigenvalues --    1.21089   1.21888   1.22085   1.22700   1.23335
 Alpha virt. eigenvalues --    1.24913   1.25136   1.25376   1.25688   1.26748
 Alpha virt. eigenvalues --    1.27559   1.27746   1.28060   1.29138   1.30384
 Alpha virt. eigenvalues --    1.31477   1.31504   1.33560   1.35017   1.35337
 Alpha virt. eigenvalues --    1.35805   1.38231   1.38938   1.39160   1.40615
 Alpha virt. eigenvalues --    1.41360   1.42080   1.42746   1.43392   1.43675
 Alpha virt. eigenvalues --    1.43986   1.45066   1.45176   1.45645   1.46448
 Alpha virt. eigenvalues --    1.46801   1.46922   1.47091   1.47661   1.47708
 Alpha virt. eigenvalues --    1.48876   1.49411   1.49803   1.50119   1.50376
 Alpha virt. eigenvalues --    1.50416   1.50563   1.50881   1.50907   1.51269
 Alpha virt. eigenvalues --    1.51794   1.52319   1.52772   1.53264   1.53377
 Alpha virt. eigenvalues --    1.55941   1.56115   1.57607   1.58070   1.59777
 Alpha virt. eigenvalues --    1.60348   1.61325   1.61714   1.63914   1.67831
 Alpha virt. eigenvalues --    1.68891   1.69289   1.70362   1.71453   1.73303
 Alpha virt. eigenvalues --    1.74631   1.75710   1.76096   1.77294   1.78644
 Alpha virt. eigenvalues --    1.78829   1.78919   1.80191   1.80738   1.80822
 Alpha virt. eigenvalues --    1.81547   1.81851   1.82176   1.82951   1.83446
 Alpha virt. eigenvalues --    1.83955   1.84275   1.85377   1.85431   1.87543
 Alpha virt. eigenvalues --    1.87805   1.88327   1.89186   1.89953   1.90758
 Alpha virt. eigenvalues --    1.91105   1.91381   1.91754   1.92453   1.92825
 Alpha virt. eigenvalues --    1.93251   1.93679   1.93840   1.94184   1.94328
 Alpha virt. eigenvalues --    1.95233   1.96234   1.96536   1.96866   1.97499
 Alpha virt. eigenvalues --    1.98613   1.99088   1.99385   1.99873   2.00387
 Alpha virt. eigenvalues --    2.01239   2.01812   2.02257   2.03365   2.03657
 Alpha virt. eigenvalues --    2.04252   2.05066   2.05806   2.06288   2.06888
 Alpha virt. eigenvalues --    2.07600   2.08100   2.09541   2.09752   2.10157
 Alpha virt. eigenvalues --    2.10905   2.11175   2.11521   2.12455   2.13015
 Alpha virt. eigenvalues --    2.14316   2.15642   2.16090   2.16500   2.16596
 Alpha virt. eigenvalues --    2.17558   2.18976   2.20617   2.20737   2.21285
 Alpha virt. eigenvalues --    2.22032   2.22107   2.22649   2.22801   2.22869
 Alpha virt. eigenvalues --    2.23516   2.24465   2.25253   2.26134   2.26207
 Alpha virt. eigenvalues --    2.26717   2.26816   2.26931   2.27128   2.27825
 Alpha virt. eigenvalues --    2.27933   2.28637   2.29166   2.29730   2.30112
 Alpha virt. eigenvalues --    2.30477   2.31271   2.31605   2.32518   2.32942
 Alpha virt. eigenvalues --    2.33302   2.33539   2.34020   2.34104   2.34834
 Alpha virt. eigenvalues --    2.35163   2.37390   2.37484   2.39670   2.40919
 Alpha virt. eigenvalues --    2.42233   2.42981   2.43659   2.45335   2.45720
 Alpha virt. eigenvalues --    2.46485   2.46696   2.48494   2.49013   2.49693
 Alpha virt. eigenvalues --    2.51321   2.51338   2.54525   2.56380   2.56554
 Alpha virt. eigenvalues --    2.58229   2.60268   2.61524   2.61677   2.62474
 Alpha virt. eigenvalues --    2.63034   2.63297   2.64487   2.65068   2.65802
 Alpha virt. eigenvalues --    2.66097   2.66869   2.67493   2.69345   2.69466
 Alpha virt. eigenvalues --    2.70538   2.70592   2.70933   2.71086   2.71156
 Alpha virt. eigenvalues --    2.71330   2.71476   2.72592   2.72749   2.73463
 Alpha virt. eigenvalues --    2.74397   2.74931   2.75160   2.77870   2.78080
 Alpha virt. eigenvalues --    2.78183   2.79900   2.80140   2.81799   2.83218
 Alpha virt. eigenvalues --    2.83567   2.83772   2.85357   2.85992   2.87525
 Alpha virt. eigenvalues --    2.88167   2.89274   2.90228   2.94978   2.95288
 Alpha virt. eigenvalues --    2.96946   2.97309   2.98977   3.02198   3.03431
 Alpha virt. eigenvalues --    3.04305   3.05850   3.12453   3.13456   3.14514
 Alpha virt. eigenvalues --    3.29904   3.30046   3.31300   3.36020   3.36036
 Alpha virt. eigenvalues --    3.36951   3.51497   3.51606   3.52657   4.06778
 Alpha virt. eigenvalues --    4.08227   4.09514   4.09918   4.11091   4.11620
 Alpha virt. eigenvalues --    4.12157   4.12701   4.13545   4.15031   4.16582
 Alpha virt. eigenvalues --    4.17694   4.17968   4.19321   4.21080   4.23388
 Alpha virt. eigenvalues --    4.24911   4.25663   4.26885   4.27492   4.29935
 Alpha virt. eigenvalues --    4.33439   4.33884   4.34044   4.34307   4.37464
 Alpha virt. eigenvalues --    4.41735   4.42314   4.44555   4.45189   4.45906
 Alpha virt. eigenvalues --    4.47020   4.49734   4.52546   4.66198   4.66750
 Alpha virt. eigenvalues --    4.71909   4.81882   4.83731   4.84620   4.85023
 Alpha virt. eigenvalues --    4.89647   4.93895
          Condensed to atoms (all electrons):
 Mulliken charges:
               1
     1  C   -0.046384
     2  C   -0.067100
     3  H    0.138746
     4  H    0.136259
     5  C   -0.065900
     6  H    0.141247
     7  H    0.138689
     8  H    0.145740
     9  H    0.159943
    10  H    0.136557
    11  C    0.092351
    12  C    0.103393
    13  C    0.094987
    14  C    0.090904
    15  C    0.084505
    16  C    0.096783
    17  C    0.095991
    18  C    0.090994
    19  C    0.084908
    20  C    0.104024
    21  C    0.094746
    22  C    0.092701
    23  C   -0.198590
    24  C   -0.187634
    25  C   -0.210249
    26  C   -0.130248
    27  C   -0.133630
    28  C   -0.129988
    29  C   -0.137784
    30  C   -0.137981
    31  C   -0.138411
    32  C   -0.183001
    33  C   -0.190224
    34  C   -0.185694
    35  H    0.127189
    36  H    0.124746
    37  H    0.125597
    38  H    0.121952
    39  H    0.123012
    40  H    0.124609
    41  H    0.122998
    42  H    0.123156
    43  H    0.124476
    44  H    0.124184
    45  H    0.120784
    46  H    0.127796
    47  C   -0.182634
    48  C   -0.185758
    49  C   -0.190353
    50  C   -0.138346
    51  C   -0.137923
    52  C   -0.138062
    53  C   -0.130786
    54  C   -0.133697
    55  C   -0.129584
    56  C   -0.210580
    57  C   -0.187309
    58  C   -0.198674
    59  H    0.121065
    60  H    0.127294
    61  H    0.124782
    62  H    0.123023
    63  H    0.123289
    64  H    0.124340
    65  H    0.121868
    66  H    0.124710
    67  H    0.123004
    68  H    0.125529
    69  H    0.127307
    70  H    0.124734
    71  C   -0.282367
    72  C   -0.440875
    73  C   -0.281047
    74  C   -0.441132
    75  H    0.141235
    76  H    0.145898
    77  H    0.159895
 Sum of Mulliken charges =  -0.00000
 Mulliken charges with hydrogens summed into heavy atoms:
               1
     1  C   -0.046384
     2  C   -0.067100
     5  C   -0.065900
    11  C    0.092351
    12  C    0.103393
    13  C    0.094987
    14  C    0.090904
    15  C    0.084505
    16  C    0.096783
    17  C    0.095991
    18  C    0.090994
    19  C    0.084908
    20  C    0.104024
    21  C    0.094746
    22  C    0.092701
    23  C   -0.074406
    24  C   -0.059838
    25  C   -0.089464
    26  C   -0.007250
    27  C   -0.010474
    28  C   -0.005512
    29  C   -0.013175
    30  C   -0.014969
    31  C   -0.016459
    32  C   -0.057404
    33  C   -0.065478
    34  C   -0.058505
    47  C   -0.057105
    48  C   -0.058451
    49  C   -0.065619
    50  C   -0.016478
    51  C   -0.013213
    52  C   -0.015057
    53  C   -0.007763
    54  C   -0.010408
    55  C   -0.005244
    56  C   -0.089514
    57  C   -0.060015
    58  C   -0.073892
    71  C   -0.007122
    72  C    0.006055
    73  C   -0.006041
    74  C    0.005896
 Electronic spatial extent (au):  <R**2>=          20100.5550
 Charge=             -0.0000 electrons
 Dipole moment (field-independent basis, Debye):
    X=              0.0135    Y=              0.4479    Z=             -0.1883  Tot=              0.4861
 Quadrupole moment (field-independent basis, Debye-Ang):
   XX=           -228.7350   YY=           -234.4664   ZZ=           -252.6360
   XY=              1.4221   XZ=              3.3978   YZ=             -9.5081
 Traceless Quadrupole moment (field-independent basis, Debye-Ang):
   XX=              9.8775   YY=              4.1461   ZZ=            -14.0235
   XY=              1.4221   XZ=              3.3978   YZ=             -9.5081
 Octapole moment (field-independent basis, Debye-Ang**2):
  XXX=              2.3630  YYY=            961.6809  ZZZ=           -426.9475  XYY=              8.9450
  XXY=            315.2098  XXZ=           -137.2846  XZZ=             -7.6811  YZZ=            322.1910
  YYZ=           -137.4048  XYZ=              7.6449
 Hexadecapole moment (field-independent basis, Debye-Ang**3):
 XXXX=          -8323.0301 YYYY=          -7836.9677 ZZZZ=         -10876.0204 XXXY=            814.8979
 XXXZ=           1805.6601 YYYX=            829.6318 YYYZ=           -662.8630 ZZZX=           1999.8989
 ZZZY=           -979.7917 XXYY=          -2721.8896 XXZZ=          -3227.9871 YYZZ=          -3127.1111
 XXYZ=           -270.7227 YYXZ=            638.2429 ZZXY=            362.6755
 N-N= 5.165862776603D+03 E-N=-1.417390468541D+04  KE= 1.642974807519D+03
 No NMR shielding tensors so no spin-rotation constants.
 Leave Link  601 at Fri Nov  7 11:21:49 2025, MaxMem=   104857600 cpu:               0.3 elap:               0.3
 (Enter /sw/cluster/pub/apps//g16/l9999.exe)
 1\1\GINC-N01\SP\RB3LYP\6-31G(d)\C43H34\UNKNOWN\07-Nov-2025\0\\#P B3LYP
 /6-31G* nosymm Density=Current\\Single-Point F3\\0,1\C,0,0.01744677,-0
 .59455188,0.2700119\C,0,-0.68856163,0.95659982,2.45811724\H,0,0.934575
 33,1.185795,1.04531888\H,0,-0.65413861,1.46979573,0.38562133\C,0,0.765
 62683,-1.10955809,-2.34972854\H,0,-0.52613156,3.13836069,2.24789819\H,
 0,-0.80908233,0.15226174,-1.56626291\H,0,0.85947897,2.39118706,3.06788
 713\H,0,-0.6812863,2.58648135,3.92712566\H,0,0.80739729,0.72819497,-1.
 26259712\C,0,1.15312198,-1.45377306,0.83122168\C,0,2.29058613,-1.23653
 534,-2.3055008\C,0,-0.33473726,-0.08750139,3.51984204\C,0,2.68202598,-
 2.58850103,-2.31873413\C,0,-1.50392814,-0.62286033,4.09815118\C,0,0.66
 37102,-2.69278422,1.28721617\C,0,-0.78334607,-2.73786753,1.05698468\C,
 0,-2.67131995,-0.00712702,3.45770637\C,0,1.47503307,-3.42160955,-2.349
 72854\C,0,-2.21795861,0.90819783,2.48943242\C,0,0.34332601,-2.58050128
 ,-2.34972854\C,0,-1.18293752,-1.52504321,0.46353089\C,0,-2.51526842,-1
 .32700046,0.11487523\C,0,-0.93091106,-3.13025855,-2.44645324\C,0,-3.12
 926395,1.66904901,1.76477261\C,0,-3.4487653,-2.33659184,0.37347525\C,0
 ,-4.49958567,1.49543601,1.99241375\C,0,-1.07343155,-4.52056469,-2.5078
 3025\C,0,-4.9489085,0.57340401,2.94370519\C,0,0.05008072,-5.3535759,-2
 .48636224\C,0,-3.04915481,-3.53782178,0.96855304\C,0,-1.71278233,-3.74
 680631,1.31353493\C,0,1.33313507,-4.80922128,-2.4121808\C,0,-4.0376003
 6,-0.18106793,3.68587175\H,0,-4.39121809,-0.88996492,4.43031179\H,0,2.
 20572913,-5.45767341,-2.41023821\H,0,-1.40345195,-4.68429649,1.7683808
 8\H,0,-3.7847823,-4.31390351,1.1640916\H,0,-0.07665766,-6.43210167,-2.
 53407781\H,0,-6.01552879,0.44849344,3.11150088\H,0,-4.49297312,-2.1813
 79,0.11592899\H,0,-5.21894601,2.08441803,1.42928955\H,0,-2.06739064,-4
 .95525939,-2.56834247\H,0,-2.84361206,-0.39581912,-0.33813632\H,0,-2.7
 9113076,2.393721,1.02671654\H,0,-1.81276445,-2.49715445,-2.4557788\C,0
 ,1.52311125,-3.63263584,1.8578226\C,0,4.03406208,-2.93642469,-2.323741
 45\C,0,-1.42567562,-1.55233431,5.13717669\C,0,2.8796069,-3.32431142,1.
 97433436\C,0,4.99372179,-1.92175419,-2.32348191\C,0,-0.16820112,-1.936
 97899,5.60498979\C,0,3.36829955,-2.09214871,1.52738843\C,0,4.60638926,
 -0.57751397,-2.32775859\C,0,0.99278288,-1.39066917,5.04795066\C,0,3.25
 026959,-0.22994626,-2.32331001\C,0,0.91392653,-0.45804805,4.00821574\C
 ,0,2.50489689,-1.1501247,0.95745199\H,0,2.96103328,0.81905719,-2.33358
 469\H,0,1.82465423,-0.04800553,3.58259215\H,0,2.90143306,-0.20243957,0
 .60438051\H,0,4.4275483,-1.86610786,1.61504937\H,0,5.36328705,0.202520
 75,-2.33915413\H,0,1.96639495,-1.69461109,5.42253959\H,0,3.56137023,-4
 .04750502,2.41466296\H,0,6.04993553,-2.1783594,-2.32745535\H,0,-0.0907
 2305,-2.66089878,6.41214191\H,0,1.14482138,-4.58811271,2.21196239\H,0,
 4.33976593,-3.97961769,-2.32908231\H,0,-2.32757316,-1.96606821,5.58141
 549\C,0,0.18517737,-0.17615138,-1.23796577\C,0,-0.23028747,2.35607926,
 2.95711268\C,0,-0.08580938,0.78250985,1.02619338\C,0,0.36388959,-0.472
 29454,-3.70983404\H,0,0.70591577,0.5679648,-3.76940232\H,0,-0.72485034
 ,-0.4807183,-3.83498185\H,0,0.80916423,-1.02610567,-4.54197517\\Versio
 n=ES64L-G16RevA.03\HF=-1659.0894305\RMSD=3.442e-09\Dipole=0.0053215,0.
 1762099,-0.0740959\Quadrupole=7.3436474,3.0824953,-10.4261427,1.057263
 ,2.5261624,-7.0690205\PG=C01 [X(C43H34)]\\@


 ONLY THE DAY DAWNS TO WHICH YOU ARE AWAKE.

                                 -- THOREAU
 Job cpu time:       0 days  0 hours 11 minutes  8.4 seconds.
 Elapsed time:       0 days  0 hours 11 minutes  9.6 seconds.
 File lengths (MBytes):  RWF=    277 Int=      0 D2E=      0 Chk=     31 Scr=      1
 Normal termination of Gaussian 16 at Fri Nov  7 11:21:51 2025.
