Opt bz                                                                  
Freq      RB3LYP                                                      6-31G(d)            
Number of atoms                            I               12
Info1-9                                    I   N=           9
          19          19        1002           0           0         100
           6          18        -502
Full Title                                 C   N=           1
Opt bz      
Route                                      C   N=           3
#p opt=tight freq b3lyp/6-31g(d)    
Charge                                     I                0
Multiplicity                               I                1
Number of electrons                        I               42
Number of alpha electrons                  I               21
Number of beta electrons                   I               21
Number of basis functions                  I              102
Number of independent functions            I              102
Number of point charges in /Mol/           I                0
Number of translation vectors              I                0
Atomic numbers                             I   N=          12
           6           6           6           6           6           6
           1           1           1           1           1           1
Nuclear charges                            R   N=          12
  6.00000000E+00  6.00000000E+00  6.00000000E+00  6.00000000E+00  6.00000000E+00
  6.00000000E+00  1.00000000E+00  1.00000000E+00  1.00000000E+00  1.00000000E+00
  1.00000000E+00  1.00000000E+00
Current cartesian coordinates              R   N=          36
  2.63853385E+00 -6.08790989E-02  1.13414253E-17  1.26654301E+00 -2.31546955E+00
 -1.72511041E-18 -1.37198990E+00 -2.25459272E+00 -7.54731841E-18 -2.63853387E+00
  6.08790879E-02 -1.89156925E-08 -1.26654301E+00  2.31546958E+00  1.97923075E-08
  1.37198993E+00  2.25459270E+00  2.77169951E-18  4.69214340E+00 -1.08268715E-01
 -1.17520138E-17  2.25231171E+00 -4.11763942E+00 -1.54825956E-17 -2.43982533E+00
 -4.00938093E+00  1.66693658E-17 -4.69214344E+00  1.08268709E-01 -1.52718432E-17
 -2.25231172E+00  4.11763946E+00 -2.10547562E-17  2.43982534E+00  4.00938091E+00
 -3.25552471E-08
Number of symbols in /Mol/                 I                0
Force Field                                I                0
Atom Types                                 C   N=          12
                                                            
                                                            
                        
Int Atom Types                             I   N=          12
           0           0           0           0           0           0
           0           0           0           0           0           0
MM charges                                 R   N=          12
  0.00000000E+00  0.00000000E+00  0.00000000E+00  0.00000000E+00  0.00000000E+00
  0.00000000E+00  0.00000000E+00  0.00000000E+00  0.00000000E+00  0.00000000E+00
  0.00000000E+00  0.00000000E+00
Integer atomic weights                     I   N=          12
          12          12          12          12          12          12
           1           1           1           1           1           1
Real atomic weights                        R   N=          12
  1.20000000E+01  1.20000000E+01  1.20000000E+01  1.20000000E+01  1.20000000E+01
  1.20000000E+01  1.00782504E+00  1.00782504E+00  1.00782504E+00  1.00782504E+00
  1.00782504E+00  1.00782504E+00
Atom fragment info                         I   N=          12
           0           0           0           0           0           0
           0           0           0           0           0           0
Atom residue num                           I   N=          12
           0           0           0           0           0           0
           0           0           0           0           0           0
Nuclear spins                              I   N=          12
           0           0           0           0           0           0
           1           1           1           1           1           1
Nuclear ZEff                               R   N=          12
 -3.60000000E+00 -3.60000000E+00 -3.60000000E+00 -3.60000000E+00 -3.60000000E+00
 -3.60000000E+00 -1.00000000E+00 -1.00000000E+00 -1.00000000E+00 -1.00000000E+00
 -1.00000000E+00 -1.00000000E+00
Nuclear ZNuc                               R   N=          12
  6.00000000E+00  6.00000000E+00  6.00000000E+00  6.00000000E+00  6.00000000E+00
  6.00000000E+00  1.00000000E+00  1.00000000E+00  1.00000000E+00  1.00000000E+00
  1.00000000E+00  1.00000000E+00
Nuclear QMom                               R   N=          12
  0.00000000E+00  0.00000000E+00  0.00000000E+00  0.00000000E+00  0.00000000E+00
  0.00000000E+00  0.00000000E+00  0.00000000E+00  0.00000000E+00  0.00000000E+00
  0.00000000E+00  0.00000000E+00
Nuclear GFac                               R   N=          12
  0.00000000E+00  0.00000000E+00  0.00000000E+00  0.00000000E+00  0.00000000E+00
  0.00000000E+00  2.79284600E+00  2.79284600E+00  2.79284600E+00  2.79284600E+00
  2.79284600E+00  2.79284600E+00
MicOpt                                     I   N=          12
          -1          -1          -1          -1          -1          -1
          -1          -1          -1          -1          -1          -1
Number of residues                         I                0
Number of secondary structures             I                0
Redundant internal dimensions              I   N=           4
          54          12          18          24
Redundant internal coordinate indices      I   N=         216
           1           2           0           0           1           6
           0           0           1           7           0           0
           2           3           0           0           2           8
           0           0           3           4           0           0
           3           9           0           0           4           5
           0           0           4          10           0           0
           5           6           0           0           5          11
           0           0           6          12           0           0
           2           1           6           0           2           1
           7           0           6           1           7           0
           1           2           3           0           1           2
           8           0           3           2           8           0
           2           3           4           0           2           3
           9           0           4           3           9           0
           3           4           5           0           3           4
          10           0           5           4          10           0
           4           5           6           0           4           5
          11           0           6           5          11           0
           1           6           5           0           1           6
          12           0           5           6          12           0
           6           1           2           3           6           1
           2           8           7           1           2           3
           7           1           2           8           2           1
           6           5           2           1           6          12
           7           1           6           5           7           1
           6          12           1           2           3           4
           1           2           3           9           8           2
           3           4           8           2           3           9
           2           3           4           5           2           3
           4          10           9           3           4           5
           9           3           4          10           3           4
           5           6           3           4           5          11
          10           4           5           6          10           4
           5          11           4           5           6           1
           4           5           6          12          11           5
           6           1          11           5           6          12
Redundant internal coordinates             R   N=          54
  2.63923037E+00  2.63923155E+00  2.05415627E+00  2.63923510E+00  2.05415583E+00
  2.63923158E+00  2.05415534E+00  2.63923042E+00  2.05415629E+00  2.63923512E+00
  2.05415585E+00  2.05415533E+00  2.09439244E+00  2.09439372E+00  2.09439915E+00
  2.09439774E+00  2.09439385E+00  2.09439371E+00  2.09439514E+00  2.09439373E+00
  2.09439644E+00  2.09439242E+00  2.09439917E+00  2.09439372E+00  2.09439773E+00
  2.09439385E+00  2.09439373E+00  2.09439514E+00  2.09439646E+00  2.09439370E+00
 -0.00000000E+00  3.14159265E+00 -3.14159264E+00  0.00000000E+00  1.49011612E-08
 -3.14159264E+00  3.14159265E+00  2.58095683E-08  1.49011612E-08  3.14159265E+00
  3.14159265E+00  0.00000000E+00 -2.58095683E-08  3.14159265E+00  3.14159264E+00
  2.58095683E-08  3.33200094E-08  3.14159264E+00  3.14159265E+00 -3.94247668E-08
 -2.98023224E-08  3.14159262E+00 -3.14159264E+00  0.00000000E+00
ZRed-IntVec                                I   N=          54
           0           0           0           0           0           0
           0           0           0           0           0           0
           0           0           0           0           0           0
           0           0           0           0           0           0
           0           0           0           0           0           0
           0           0           0           0           0           0
           0           0           0           0           0           0
           0           0           0           0           0           0
           0           0           0           0           0           0
ZRed-FPVec                                 R   N=          54
  0.00000000E+00  0.00000000E+00  0.00000000E+00  0.00000000E+00  0.00000000E+00
  0.00000000E+00  0.00000000E+00  0.00000000E+00  0.00000000E+00  0.00000000E+00
  0.00000000E+00  0.00000000E+00  0.00000000E+00  0.00000000E+00  0.00000000E+00
  0.00000000E+00  0.00000000E+00  0.00000000E+00  0.00000000E+00  0.00000000E+00
  0.00000000E+00  0.00000000E+00  0.00000000E+00  0.00000000E+00  0.00000000E+00
  0.00000000E+00  0.00000000E+00  0.00000000E+00  0.00000000E+00  0.00000000E+00
  0.00000000E+00  0.00000000E+00  0.00000000E+00  0.00000000E+00  0.00000000E+00
  0.00000000E+00  0.00000000E+00  0.00000000E+00  0.00000000E+00  0.00000000E+00
  0.00000000E+00  0.00000000E+00  0.00000000E+00  0.00000000E+00  0.00000000E+00
  0.00000000E+00  0.00000000E+00  0.00000000E+00  0.00000000E+00  0.00000000E+00
  0.00000000E+00  0.00000000E+00  0.00000000E+00  0.00000000E+00
ZRed-Constraint1                           R   N=          54
  2.63923037E+00  2.63923155E+00  2.05415627E+00  2.63923510E+00  2.05415583E+00
  2.63923158E+00  2.05415534E+00  2.63923042E+00  2.05415629E+00  2.63923512E+00
  2.05415585E+00  2.05415533E+00  2.09439244E+00  2.09439372E+00  2.09439915E+00
  2.09439774E+00  2.09439385E+00  2.09439371E+00  2.09439514E+00  2.09439373E+00
  2.09439644E+00  2.09439242E+00  2.09439917E+00  2.09439372E+00  2.09439773E+00
  2.09439385E+00  2.09439373E+00  2.09439514E+00  2.09439646E+00  2.09439370E+00
  0.00000000E+00  3.14159265E+00  3.14159265E+00 -0.00000000E+00  0.00000000E+00
 -3.14159264E+00  3.14159265E+00  0.00000000E+00  0.00000000E+00  3.14159265E+00
  3.14159265E+00  0.00000000E+00 -2.58095683E-08  3.14159265E+00  3.14159263E+00
  1.49011612E-08  3.33200094E-08  3.14159265E+00  3.14159265E+00 -4.21468485E-08
 -1.49011612E-08  3.14159262E+00  3.14159265E+00  0.00000000E+00
ZRed-Constraint2                           R   N=          54
  2.64826219E+00  2.64826220E+00  2.02200695E+00  2.64826219E+00  2.02200694E+00
  2.64826220E+00  2.02200696E+00  2.64826218E+00  2.02200695E+00  2.64826219E+00
  2.02200696E+00  2.02200696E+00  2.09439511E+00  2.09439510E+00  2.09439510E+00
  2.09439510E+00  2.09439511E+00  2.09439510E+00  2.09439510E+00  2.09439511E+00
  2.09439510E+00  2.09439511E+00  2.09439510E+00  2.09439510E+00  2.09439510E+00
  2.09439510E+00  2.09439510E+00  2.09439510E+00  2.09439510E+00  2.09439511E+00
 -8.32200170E-07  3.14159238E+00  3.14159156E+00 -5.40770510E-07  6.17814435E-07
 -3.14159116E+00 -3.14159177E+00  1.76438810E-06 -6.42653067E-07 -3.14159218E+00
  3.14159145E+00 -8.42936970E-08  2.33182939E-06 -3.14159102E+00 -3.14159144E+00
  5.16191366E-07 -2.54609353E-06  3.14158994E+00  3.14159081E+00 -2.01093917E-06
  1.07122664E-06 -3.14159246E+00 -3.14159142E+00  3.55135658E-07
SymInf integers                            I   N=          26
           1           1           1           1           1           0
           0           0           0           0           0           0
           0           0           0           0           0           0
           0           0           0           0           0           0
           0           0
RotTr to input orientation                 R   N=          12
 -5.19886556E-01 -8.54235223E-01  3.89802137E-04 -8.54235258E-01  5.19886306E-01
 -5.94790737E-04  3.05438405E-04 -6.42206437E-04 -9.99999747E-01  4.96433689E-01
  2.58102740E+00  4.69328006E-01
Number of contracted shells                I               36
Number of primitive shells                 I               90
Pure/Cartesian d shells                    I                1
Pure/Cartesian f shells                    I                0
Highest angular momentum                   I                2
Largest degree of contraction              I                6
Shell types                                I   N=          36
           0          -1          -1           2           0          -1
          -1           2           0          -1          -1           2
           0          -1          -1           2           0          -1
          -1           2           0          -1          -1           2
           0           0           0           0           0           0
           0           0           0           0           0           0
Number of primitives per shell             I   N=          36
           6           3           1           1           6           3
           1           1           6           3           1           1
           6           3           1           1           6           3
           1           1           6           3           1           1
           3           1           3           1           3           1
           3           1           3           1           3           1
Shell to atom map                          I   N=          36
           1           1           1           1           2           2
           2           2           3           3           3           3
           4           4           4           4           5           5
           5           5           6           6           6           6
           7           7           8           8           9           9
          10          10          11          11          12          12
Primitive exponents                        R   N=          90
  3.04752488E+03  4.57369518E+02  1.03948685E+02  2.92101553E+01  9.28666296E+00
  3.16392696E+00  7.86827235E+00  1.88128854E+00  5.44249258E-01  1.68714478E-01
  8.00000000E-01  3.04752488E+03  4.57369518E+02  1.03948685E+02  2.92101553E+01
  9.28666296E+00  3.16392696E+00  7.86827235E+00  1.88128854E+00  5.44249258E-01
  1.68714478E-01  8.00000000E-01  3.04752488E+03  4.57369518E+02  1.03948685E+02
  2.92101553E+01  9.28666296E+00  3.16392696E+00  7.86827235E+00  1.88128854E+00
  5.44249258E-01  1.68714478E-01  8.00000000E-01  3.04752488E+03  4.57369518E+02
  1.03948685E+02  2.92101553E+01  9.28666296E+00  3.16392696E+00  7.86827235E+00
  1.88128854E+00  5.44249258E-01  1.68714478E-01  8.00000000E-01  3.04752488E+03
  4.57369518E+02  1.03948685E+02  2.92101553E+01  9.28666296E+00  3.16392696E+00
  7.86827235E+00  1.88128854E+00  5.44249258E-01  1.68714478E-01  8.00000000E-01
  3.04752488E+03  4.57369518E+02  1.03948685E+02  2.92101553E+01  9.28666296E+00
  3.16392696E+00  7.86827235E+00  1.88128854E+00  5.44249258E-01  1.68714478E-01
  8.00000000E-01  1.87311370E+01  2.82539436E+00  6.40121692E-01  1.61277759E-01
  1.87311370E+01  2.82539436E+00  6.40121692E-01  1.61277759E-01  1.87311370E+01
  2.82539436E+00  6.40121692E-01  1.61277759E-01  1.87311370E+01  2.82539436E+00
  6.40121692E-01  1.61277759E-01  1.87311370E+01  2.82539436E+00  6.40121692E-01
  1.61277759E-01  1.87311370E+01  2.82539436E+00  6.40121692E-01  1.61277759E-01
Contraction coefficients                   R   N=          90
  1.83473713E-03  1.40373228E-02  6.88426223E-02  2.32184443E-01  4.67941348E-01
  3.62311985E-01 -1.19332420E-01 -1.60854152E-01  1.14345644E+00  1.00000000E+00
  1.00000000E+00  1.83473713E-03  1.40373228E-02  6.88426223E-02  2.32184443E-01
  4.67941348E-01  3.62311985E-01 -1.19332420E-01 -1.60854152E-01  1.14345644E+00
  1.00000000E+00  1.00000000E+00  1.83473713E-03  1.40373228E-02  6.88426223E-02
  2.32184443E-01  4.67941348E-01  3.62311985E-01 -1.19332420E-01 -1.60854152E-01
  1.14345644E+00  1.00000000E+00  1.00000000E+00  1.83473713E-03  1.40373228E-02
  6.88426223E-02  2.32184443E-01  4.67941348E-01  3.62311985E-01 -1.19332420E-01
 -1.60854152E-01  1.14345644E+00  1.00000000E+00  1.00000000E+00  1.83473713E-03
  1.40373228E-02  6.88426223E-02  2.32184443E-01  4.67941348E-01  3.62311985E-01
 -1.19332420E-01 -1.60854152E-01  1.14345644E+00  1.00000000E+00  1.00000000E+00
  1.83473713E-03  1.40373228E-02  6.88426223E-02  2.32184443E-01  4.67941348E-01
  3.62311985E-01 -1.19332420E-01 -1.60854152E-01  1.14345644E+00  1.00000000E+00
  1.00000000E+00  3.34946043E-02  2.34726953E-01  8.13757326E-01  1.00000000E+00
  3.34946043E-02  2.34726953E-01  8.13757326E-01  1.00000000E+00  3.34946043E-02
  2.34726953E-01  8.13757326E-01  1.00000000E+00  3.34946043E-02  2.34726953E-01
  8.13757326E-01  1.00000000E+00  3.34946043E-02  2.34726953E-01  8.13757326E-01
  1.00000000E+00  3.34946043E-02  2.34726953E-01  8.13757326E-01  1.00000000E+00
P(S=P) Contraction coefficients            R   N=          90
  0.00000000E+00  0.00000000E+00  0.00000000E+00  0.00000000E+00  0.00000000E+00
  0.00000000E+00  6.89990666E-02  3.16423961E-01  7.44308291E-01  1.00000000E+00
  0.00000000E+00  0.00000000E+00  0.00000000E+00  0.00000000E+00  0.00000000E+00
  0.00000000E+00  0.00000000E+00  6.89990666E-02  3.16423961E-01  7.44308291E-01
  1.00000000E+00  0.00000000E+00  0.00000000E+00  0.00000000E+00  0.00000000E+00
  0.00000000E+00  0.00000000E+00  0.00000000E+00  6.89990666E-02  3.16423961E-01
  7.44308291E-01  1.00000000E+00  0.00000000E+00  0.00000000E+00  0.00000000E+00
  0.00000000E+00  0.00000000E+00  0.00000000E+00  0.00000000E+00  6.89990666E-02
  3.16423961E-01  7.44308291E-01  1.00000000E+00  0.00000000E+00  0.00000000E+00
  0.00000000E+00  0.00000000E+00  0.00000000E+00  0.00000000E+00  0.00000000E+00
  6.89990666E-02  3.16423961E-01  7.44308291E-01  1.00000000E+00  0.00000000E+00
  0.00000000E+00  0.00000000E+00  0.00000000E+00  0.00000000E+00  0.00000000E+00
  0.00000000E+00  6.89990666E-02  3.16423961E-01  7.44308291E-01  1.00000000E+00
  0.00000000E+00  0.00000000E+00  0.00000000E+00  0.00000000E+00  0.00000000E+00
  0.00000000E+00  0.00000000E+00  0.00000000E+00  0.00000000E+00  0.00000000E+00
  0.00000000E+00  0.00000000E+00  0.00000000E+00  0.00000000E+00  0.00000000E+00
  0.00000000E+00  0.00000000E+00  0.00000000E+00  0.00000000E+00  0.00000000E+00
  0.00000000E+00  0.00000000E+00  0.00000000E+00  0.00000000E+00  0.00000000E+00
Coordinates of each shell                  R   N=         108
  2.63853385E+00 -6.08790989E-02  1.19919466E-17  2.63853385E+00 -6.08790989E-02
  1.19919466E-17  2.63853385E+00 -6.08790989E-02  1.19919466E-17  2.63853385E+00
 -6.08790989E-02  1.19919466E-17  1.26654301E+00 -2.31546955E+00 -1.50826997E-18
  1.26654301E+00 -2.31546955E+00 -1.50826997E-18  1.26654301E+00 -2.31546955E+00
 -1.50826997E-18  1.26654301E+00 -2.31546955E+00 -1.50826997E-18 -1.37198990E+00
 -2.25459272E+00 -7.22205776E-18 -1.37198990E+00 -2.25459272E+00 -7.22205776E-18
 -1.37198990E+00 -2.25459272E+00 -7.22205776E-18 -1.37198990E+00 -2.25459272E+00
 -7.22205776E-18 -2.63853387E+00  6.08790879E-02 -1.89156925E-08 -2.63853387E+00
  6.08790879E-02 -1.89156925E-08 -2.63853387E+00  6.08790879E-02 -1.89156925E-08
 -2.63853387E+00  6.08790879E-02 -1.89156925E-08 -1.26654301E+00  2.31546958E+00
  1.97923075E-08 -1.26654301E+00  2.31546958E+00  1.97923075E-08 -1.26654301E+00
  2.31546958E+00  1.97923075E-08 -1.26654301E+00  2.31546958E+00  1.97923075E-08
  1.37198993E+00  2.25459270E+00  2.55485908E-18  1.37198993E+00  2.25459270E+00
  2.55485908E-18  1.37198993E+00  2.25459270E+00  2.55485908E-18  1.37198993E+00
  2.25459270E+00  2.55485908E-18  4.69214340E+00 -1.08268715E-01 -1.13183329E-17
  4.69214340E+00 -1.08268715E-01 -1.13183329E-17  2.25231171E+00 -4.11763942E+00
 -1.50489147E-17  2.25231171E+00 -4.11763942E+00 -1.50489147E-17 -2.43982533E+00
 -4.00938093E+00  1.71030467E-17 -2.43982533E+00 -4.00938093E+00  1.71030467E-17
 -4.69214344E+00  1.08268709E-01 -1.63560453E-17 -4.69214344E+00  1.08268709E-01
 -1.63560453E-17 -2.25231172E+00  4.11763946E+00 -2.23557989E-17 -2.25231172E+00
  4.11763946E+00 -2.23557989E-17  2.43982534E+00  4.00938091E+00 -3.25552471E-08
  2.43982534E+00  4.00938091E+00 -3.25552471E-08
Num ILSW                                   I              100
ILSW                                       I   N=         100
           0           1           0           0           2           0
           0           0           0           0         402          -1
           5           0           0           0           2           0
           0           0           0           0           1           0
           1           0           0           0           0           0
           0           0      100000           0          -1           0
           0           0           0           0           0           0
           0           0           0           1           0           0
           0 -2000000000           1           0           0           0
           0           0           4          52           0           0
           0           0           5           0           0           0
           0           0           0          12           0           1
           0           0           0           0           0           0
           0           0           0           0           0           0
           0           0           0           0           0           0
           0           0           0           0           0           0
           0           0           0           0
Num RLSW                                   I               52
RLSW                                       R   N=          52
  8.00000000E-01  7.20000000E-01  1.00000000E+00  8.10000000E-01  2.00000000E-01
  0.00000000E+00  0.00000000E+00  1.00000000E+00  0.00000000E+00  0.00000000E+00
  0.00000000E+00  0.00000000E+00  1.00000000E+00  0.00000000E+00  0.00000000E+00
  0.00000000E+00  0.00000000E+00  1.00000000E+00  0.00000000E+00  0.00000000E+00
  0.00000000E+00  0.00000000E+00  1.00000000E+00  0.00000000E+00  0.00000000E+00
  0.00000000E+00  0.00000000E+00  1.00000000E+00  0.00000000E+00  0.00000000E+00
  0.00000000E+00  0.00000000E+00  1.00000000E+00  0.00000000E+00  0.00000000E+00
  0.00000000E+00  0.00000000E+00  0.00000000E+00  1.00000000E+00  1.00000000E+00
  0.00000000E+00  1.00000000E+00  0.00000000E+00  0.00000000E+00  0.00000000E+00
  0.00000000E+00  0.00000000E+00  0.00000000E+00  0.00000000E+00  0.00000000E+00
  0.00000000E+00  0.00000000E+00
MxBond                                     I                3
NBond                                      I   N=          12
           3           3           3           3           3           3
           1           1           1           1           1           1
IBond                                      I   N=          36
           2           6           7           1           3           8
           2           4           9           3           5          10
           4           6          11           1           5          12
           1           0           0           2           0           0
           3           0           0           4           0           0
           5           0           0           6           0           0
RBond                                      R   N=          36
  1.50000000E+00  1.50000000E+00  1.00000000E+00  1.50000000E+00  1.50000000E+00
  1.00000000E+00  1.50000000E+00  1.50000000E+00  1.00000000E+00  1.50000000E+00
  1.50000000E+00  1.00000000E+00  1.50000000E+00  1.50000000E+00  1.00000000E+00
  1.50000000E+00  1.50000000E+00  1.00000000E+00  1.00000000E+00  0.00000000E+00
  0.00000000E+00  1.00000000E+00  0.00000000E+00  0.00000000E+00  1.00000000E+00
  0.00000000E+00  0.00000000E+00  1.00000000E+00  0.00000000E+00  0.00000000E+00
  1.00000000E+00  0.00000000E+00  0.00000000E+00  1.00000000E+00  0.00000000E+00
  0.00000000E+00
Virial Ratio                               R      2.010102552009382E+00
SCF Energy                                 R     -2.322486500551541E+02
Total Energy                               R     -2.322486500551541E+02
RMS Force                                  R      1.452110098806248E-06
RMS Density                                R      6.041420555181452E-09
NImag                                      I                0
Job Status                                 I                1
Nuclear derivative order                   I                2
External E-field                           R   N=          35
  0.00000000E+00  0.00000000E+00  0.00000000E+00  0.00000000E+00  0.00000000E+00
  0.00000000E+00  0.00000000E+00  0.00000000E+00  0.00000000E+00  0.00000000E+00
  0.00000000E+00  0.00000000E+00  0.00000000E+00  0.00000000E+00  0.00000000E+00
  0.00000000E+00  0.00000000E+00  0.00000000E+00  0.00000000E+00  0.00000000E+00
  0.00000000E+00  0.00000000E+00  0.00000000E+00  0.00000000E+00  0.00000000E+00
  0.00000000E+00  0.00000000E+00  0.00000000E+00  0.00000000E+00  0.00000000E+00
  0.00000000E+00  0.00000000E+00  0.00000000E+00  0.00000000E+00  0.00000000E+00
IOpCl                                      I                0
IROHF                                      I                0
Alpha Orbital Energies                     R   N=         102
 -1.01877401E+01 -1.01874754E+01 -1.01874753E+01 -1.01869232E+01 -1.01869231E+01
 -1.01866577E+01 -8.46323397E-01 -7.39830817E-01 -7.39829960E-01 -5.97490053E-01
 -5.97489523E-01 -5.18550988E-01 -4.59289351E-01 -4.38104357E-01 -4.17256610E-01
 -4.17255619E-01 -3.59395657E-01 -3.40271098E-01 -3.40271047E-01 -2.46293334E-01
 -2.46292458E-01  3.61809996E-03  3.61856431E-03  9.07420191E-02  1.44688440E-01
  1.44688948E-01  1.63942860E-01  1.81852167E-01  1.81852572E-01  1.90260643E-01
  3.02659050E-01  3.02660033E-01  3.19140057E-01  3.19140462E-01  4.74882260E-01
  5.27355651E-01  5.49038444E-01  5.50300180E-01  5.63969500E-01  5.92514170E-01
  6.02013660E-01  6.02014359E-01  6.02063838E-01  6.02065276E-01  6.26788605E-01
  6.26789589E-01  6.67536971E-01  6.67537347E-01  7.44867379E-01  8.40003361E-01
  8.40003552E-01  8.41101867E-01  8.65008881E-01  8.65009617E-01  9.39038118E-01
  9.39038728E-01  9.40626006E-01  9.57983999E-01  1.08261181E+00  1.08261290E+00
  1.14238347E+00  1.14238626E+00  1.20100044E+00  1.26189086E+00  1.39628365E+00
  1.43637582E+00  1.43637738E+00  1.48697376E+00  1.48697438E+00  1.51542360E+00
  1.51542499E+00  1.75688798E+00  1.78986821E+00  1.85728368E+00  1.89560076E+00
  1.97353239E+00  1.97353445E+00  2.06600071E+00  2.06600317E+00  2.15163794E+00
  2.15164117E+00  2.15441182E+00  2.15441237E+00  2.30948263E+00  2.30948414E+00
  2.32163261E+00  2.54574222E+00  2.54574383E+00  2.65690207E+00  2.70540284E+00
  2.70540392E+00  2.72192044E+00  2.72192144E+00  2.76005873E+00  3.01697338E+00
  3.41016484E+00  4.08519305E+00  4.11773613E+00  4.11773711E+00  4.33033900E+00
  4.33033976E+00  4.66588814E+00
Alpha MO coefficients                      R   N=       10404
  4.05322878E-01  1.97680684E-02  1.28194278E-04 -2.92764215E-06 -6.49023478E-13
 -2.55784135E-03 -3.59210058E-04  8.12729883E-06  1.01154236E-11 -3.93847813E-03
 -4.03245309E-03 -4.06848708E-03 -2.51082876E-06 -3.47598441E-13  3.46142056E-13
  4.05237479E-01  1.97637752E-02  6.14897777E-05 -1.12554742E-04  4.07112237E-12
 -2.55633754E-03 -1.72241550E-04  3.15661119E-04 -1.37891620E-11 -4.01004788E-03
 -3.95930983E-03 -4.06766758E-03 -4.57543742E-05  1.14521524E-12 -5.90845305E-13
  4.05082612E-01  1.97560869E-02 -6.67370377E-05 -1.09539032E-04 -3.35144791E-12
 -2.55469375E-03  1.87272653E-04  3.07117548E-04  2.23778466E-11 -4.00481267E-03
 -3.96156216E-03 -4.06616023E-03  4.82475058E-05 -2.64671227E-13  3.12556095E-12
  4.05029078E-01  1.97534952E-02 -1.28211493E-04  2.98786769E-06  7.17722858E-12
 -2.55483425E-03  3.59390311E-04 -8.44119361E-06 -3.75929188E-11 -3.93564737E-03
 -4.02960607E-03 -4.06562696E-03 -2.50155162E-06 -4.97777339E-12 -8.97702588E-13
  4.04991216E-01  1.97515601E-02 -6.15873650E-05  1.12519119E-04 -6.72568032E-12
 -2.55381779E-03  1.72783267E-04 -3.15543433E-04  3.53894226E-11 -4.00767552E-03
 -3.95692303E-03 -4.06527022E-03 -4.57392660E-05  7.35454326E-13 -4.53874663E-12
  4.05130117E-01  1.97584432E-02  6.65966394E-05  1.09620957E-04 -2.40185718E-13
 -2.55517947E-03 -1.86538258E-04 -3.07529268E-04 -1.14934097E-11 -4.00525387E-03
 -3.96203902E-03 -4.06662270E-03  4.82599473E-05  1.64979448E-12 -6.28657501E-13
 -1.92435072E-04  9.06452731E-04 -1.92400830E-04  9.06350717E-04 -1.92335537E-04