 Entering Gaussian System, Link 0=g16
 Initial command:
 /sw/cluster/pub/apps//g16/l1.exe "/data/mmaximo/35699/Gau-136095.inp" -scrdir="/data/mmaximo/35699/"
 Entering Link 1 = /sw/cluster/pub/apps//g16/l1.exe PID=    136096.
  
 Copyright (c) 1988,1990,1992,1993,1995,1998,2003,2009,2016,
            Gaussian, Inc.  All Rights Reserved.
  
 This is part of the Gaussian(R) 16 program.  It is based on
 the Gaussian(R) 09 system (copyright 2009, Gaussian, Inc.),
 the Gaussian(R) 03 system (copyright 2003, Gaussian, Inc.),
 the Gaussian(R) 98 system (copyright 1998, Gaussian, Inc.),
 the Gaussian(R) 94 system (copyright 1995, Gaussian, Inc.),
 the Gaussian 92(TM) system (copyright 1992, Gaussian, Inc.),
 the Gaussian 90(TM) system (copyright 1990, Gaussian, Inc.),
 the Gaussian 88(TM) system (copyright 1988, Gaussian, Inc.),
 the Gaussian 86(TM) system (copyright 1986, Carnegie Mellon
 University), and the Gaussian 82(TM) system (copyright 1983,
 Carnegie Mellon University). Gaussian is a federally registered
 trademark of Gaussian, Inc.
  
 This software contains proprietary and confidential information,
 including trade secrets, belonging to Gaussian, Inc.
  
 This software is provided under written license and may be
 used, copied, transmitted, or stored only in accord with that
 written license.
  
 The following legend is applicable only to US Government
 contracts under FAR:
  
                    RESTRICTED RIGHTS LEGEND
  
 Use, reproduction and disclosure by the US Government is
 subject to restrictions as set forth in subparagraphs (a)
 and (c) of the Commercial Computer Software - Restricted
 Rights clause in FAR 52.227-19.
  
 Gaussian, Inc.
 340 Quinnipiac St., Bldg. 40, Wallingford CT 06492
  
  
 ---------------------------------------------------------------
 Warning -- This program may not be used in any manner that
 competes with the business of Gaussian, Inc. or will provide
 assistance to any competitor of Gaussian, Inc.  The licensee
 of this program is prohibited from giving any competitor of
 Gaussian, Inc. access to this program.  By using this program,
 the user acknowledges that Gaussian, Inc. is engaged in the
 business of creating and licensing software in the field of
 computational chemistry and represents and warrants to the
 licensee that it is not a competitor of Gaussian, Inc. and that
 it will not use this program in any manner prohibited above.
 ---------------------------------------------------------------
  

 Cite this work as:
 Gaussian 16, Revision A.03,
 M. J. Frisch, G. W. Trucks, H. B. Schlegel, G. E. Scuseria, 
 M. A. Robb, J. R. Cheeseman, G. Scalmani, V. Barone, 
 G. A. Petersson, H. Nakatsuji, X. Li, M. Caricato, A. V. Marenich, 
 J. Bloino, B. G. Janesko, R. Gomperts, B. Mennucci, H. P. Hratchian, 
 J. V. Ortiz, A. F. Izmaylov, J. L. Sonnenberg, D. Williams-Young, 
 F. Ding, F. Lipparini, F. Egidi, J. Goings, B. Peng, A. Petrone, 
 T. Henderson, D. Ranasinghe, V. G. Zakrzewski, J. Gao, N. Rega, 
 G. Zheng, W. Liang, M. Hada, M. Ehara, K. Toyota, R. Fukuda, 
 J. Hasegawa, M. Ishida, T. Nakajima, Y. Honda, O. Kitao, H. Nakai, 
 T. Vreven, K. Throssell, J. A. Montgomery, Jr., J. E. Peralta, 
 F. Ogliaro, M. J. Bearpark, J. J. Heyd, E. N. Brothers, K. N. Kudin, 
 V. N. Staroverov, T. A. Keith, R. Kobayashi, J. Normand, 
 K. Raghavachari, A. P. Rendell, J. C. Burant, S. S. Iyengar, 
 J. Tomasi, M. Cossi, J. M. Millam, M. Klene, C. Adamo, R. Cammi, 
 J. W. Ochterski, R. L. Martin, K. Morokuma, O. Farkas, 
 J. B. Foresman, and D. J. Fox, Gaussian, Inc., Wallingford CT, 2016.
 
 ******************************************
 Gaussian 16:  ES64L-G16RevA.03 25-Dec-2016
                10-Jul-2025 
 ******************************************
 %chk=bz.chk
 --------------------------------
 #p opt=tight freq b3lyp/6-31g(d)
 --------------------------------
 1/7=10,18=20,19=15,26=3,38=1/1,3;
 2/9=110,12=2,17=6,18=5,40=1/2;
 3/5=1,6=6,7=1,11=2,25=1,30=1,71=1,74=-5/1,2,3;
 4//1;
 5/5=2,38=5/2;
 6/7=2,8=2,9=2,10=2,28=1/1;
 7//1,2,3,16;
 1/7=10,18=20,19=15,26=3/3(2);
 2/9=110/2;
 99//99;
 2/9=110/2;
 3/5=1,6=6,7=1,11=2,25=1,30=1,71=1,74=-5/1,2,3;
 4/5=5,16=3,69=1/1;
 5/5=2,38=5/2;
 7//1,2,3,16;
 1/7=10,18=20,19=15,26=3/3(-5);
 2/9=110/2;
 6/7=2,8=2,9=2,10=2,19=2,28=1/1;
 99/9=1/99;
 Leave Link    1 at Thu Jul 10 10:48:28 2025, MaxMem=           0 cpu:               0.0 elap:               0.0
 (Enter /sw/cluster/pub/apps//g16/l101.exe)
 ------
 Opt bz
 ------
 Symbolic Z-matrix:
 Charge =  0 Multiplicity = 1
 C                    -0.43806   0.15221   0.24892 
 C                     0.96334   0.15214   0.24935 
 C                     1.6641    1.36575   0.24879 
 C                     0.96346   2.57943   0.24779 
 C                    -0.43794   2.5795    0.24736 
 C                    -1.1387    1.36589   0.24793 
 H                    -0.97311  -0.77441   0.24935 
 H                     1.49829  -0.77454   0.25011 
 H                     2.7341    1.3657    0.24911 
 H                     1.49851   3.50605   0.24736 
 H                    -0.97289   3.50618   0.24661 
 H                    -2.2087    1.36594   0.2476 
 
 ITRead=  0  0  0  0  0  0  0  0  0  0  0  0
 MicOpt= -1 -1 -1 -1 -1 -1 -1 -1 -1 -1 -1 -1
 NAtoms=     12 NQM=       12 NQMF=       0 NMMI=      0 NMMIF=      0
                NMic=       0 NMicF=      0.
                    Isotopes and Nuclear Properties:
 (Nuclear quadrupole moments (NQMom) in fm**2, nuclear magnetic moments (NMagM)
  in nuclear magnetons)

  Atom         1           2           3           4           5           6           7           8           9          10
 IAtWgt=          12          12          12          12          12          12           1           1           1           1
 AtmWgt=  12.0000000  12.0000000  12.0000000  12.0000000  12.0000000  12.0000000   1.0078250   1.0078250   1.0078250   1.0078250
 NucSpn=           0           0           0           0           0           0           1           1           1           1
 AtZEff=  -0.0000000  -0.0000000  -0.0000000  -0.0000000  -0.0000000  -0.0000000  -0.0000000  -0.0000000  -0.0000000  -0.0000000
 NQMom=    0.0000000   0.0000000   0.0000000   0.0000000   0.0000000   0.0000000   0.0000000   0.0000000   0.0000000   0.0000000
 NMagM=    0.0000000   0.0000000   0.0000000   0.0000000   0.0000000   0.0000000   2.7928460   2.7928460   2.7928460   2.7928460
 AtZNuc=   6.0000000   6.0000000   6.0000000   6.0000000   6.0000000   6.0000000   1.0000000   1.0000000   1.0000000   1.0000000

  Atom        11          12
 IAtWgt=           1           1
 AtmWgt=   1.0078250   1.0078250
 NucSpn=           1           1
 AtZEff=  -0.0000000  -0.0000000
 NQMom=    0.0000000   0.0000000
 NMagM=    2.7928460   2.7928460
 AtZNuc=   1.0000000   1.0000000
 Leave Link  101 at Thu Jul 10 10:48:28 2025, MaxMem=   104857600 cpu:               0.0 elap:               0.0
 (Enter /sw/cluster/pub/apps//g16/l103.exe)

 GradGradGradGradGradGradGradGradGradGradGradGradGradGradGradGradGradGrad
 Berny optimization.
 Initialization pass.
                           ----------------------------
                           !    Initial Parameters    !
                           ! (Angstroms and Degrees)  !
 --------------------------                            --------------------------
 ! Name  Definition              Value          Derivative Info.                !
 --------------------------------------------------------------------------------
 ! R1    R(1,2)                  1.4014         estimate D2E/DX2                !
 ! R2    R(1,6)                  1.4014         estimate D2E/DX2                !
 ! R3    R(1,7)                  1.07           estimate D2E/DX2                !
 ! R4    R(2,3)                  1.4014         estimate D2E/DX2                !
 ! R5    R(2,8)                  1.07           estimate D2E/DX2                !
 ! R6    R(3,4)                  1.4014         estimate D2E/DX2                !
 ! R7    R(3,9)                  1.07           estimate D2E/DX2                !
 ! R8    R(4,5)                  1.4014         estimate D2E/DX2                !
 ! R9    R(4,10)                 1.07           estimate D2E/DX2                !
 ! R10   R(5,6)                  1.4014         estimate D2E/DX2                !
 ! R11   R(5,11)                 1.07           estimate D2E/DX2                !
 ! R12   R(6,12)                 1.07           estimate D2E/DX2                !
 ! A1    A(2,1,6)              120.0            estimate D2E/DX2                !
 ! A2    A(2,1,7)              120.0            estimate D2E/DX2                !
 ! A3    A(6,1,7)              120.0            estimate D2E/DX2                !
 ! A4    A(1,2,3)              120.0            estimate D2E/DX2                !
 ! A5    A(1,2,8)              120.0            estimate D2E/DX2                !
 ! A6    A(3,2,8)              120.0            estimate D2E/DX2                !
 ! A7    A(2,3,4)              120.0            estimate D2E/DX2                !
 ! A8    A(2,3,9)              120.0            estimate D2E/DX2                !
 ! A9    A(4,3,9)              120.0            estimate D2E/DX2                !
 ! A10   A(3,4,5)              120.0            estimate D2E/DX2                !
 ! A11   A(3,4,10)             120.0            estimate D2E/DX2                !
 ! A12   A(5,4,10)             120.0            estimate D2E/DX2                !
 ! A13   A(4,5,6)              120.0            estimate D2E/DX2                !
 ! A14   A(4,5,11)             120.0            estimate D2E/DX2                !
 ! A15   A(6,5,11)             120.0            estimate D2E/DX2                !
 ! A16   A(1,6,5)              120.0            estimate D2E/DX2                !
 ! A17   A(1,6,12)             120.0            estimate D2E/DX2                !
 ! A18   A(5,6,12)             120.0            estimate D2E/DX2                !
 ! D1    D(6,1,2,3)              0.0            estimate D2E/DX2                !
 ! D2    D(6,1,2,8)            180.0            estimate D2E/DX2                !
 ! D3    D(7,1,2,3)            179.9999         estimate D2E/DX2                !
 ! D4    D(7,1,2,8)              0.0            estimate D2E/DX2                !
 ! D5    D(2,1,6,5)              0.0            estimate D2E/DX2                !
 ! D6    D(2,1,6,12)          -179.9999         estimate D2E/DX2                !
 ! D7    D(7,1,6,5)           -179.9999         estimate D2E/DX2                !
 ! D8    D(7,1,6,12)             0.0001         estimate D2E/DX2                !
 ! D9    D(1,2,3,4)              0.0            estimate D2E/DX2                !
 ! D10   D(1,2,3,9)           -180.0            estimate D2E/DX2                !
 ! D11   D(8,2,3,4)            179.9999         estimate D2E/DX2                !
 ! D12   D(8,2,3,9)              0.0            estimate D2E/DX2                !
 ! D13   D(2,3,4,5)              0.0001         estimate D2E/DX2                !
 ! D14   D(2,3,4,10)          -179.9999         estimate D2E/DX2                !
 ! D15   D(9,3,4,5)           -179.9999         estimate D2E/DX2                !
 ! D16   D(9,3,4,10)             0.0            estimate D2E/DX2                !
 ! D17   D(3,4,5,6)             -0.0001         estimate D2E/DX2                !
 ! D18   D(3,4,5,11)           179.9998         estimate D2E/DX2                !
 ! D19   D(10,4,5,6)           179.9999         estimate D2E/DX2                !
 ! D20   D(10,4,5,11)           -0.0001         estimate D2E/DX2                !
 ! D21   D(4,5,6,1)              0.0001         estimate D2E/DX2                !
 ! D22   D(4,5,6,12)          -180.0            estimate D2E/DX2                !
 ! D23   D(11,5,6,1)          -179.9999         estimate D2E/DX2                !
 ! D24   D(11,5,6,12)            0.0            estimate D2E/DX2                !
 --------------------------------------------------------------------------------
 Trust Radius=3.00D-01 FncErr=1.00D-07 GrdErr=1.00D-06 EigMax=2.50D+02 EigMin=1.00D-04
 Number of steps in this run=     64 maximum allowed number of steps=    100.
 GradGradGradGradGradGradGradGradGradGradGradGradGradGradGradGradGradGrad

 Leave Link  103 at Thu Jul 10 10:48:28 2025, MaxMem=   104857600 cpu:               0.0 elap:               0.0
 (Enter /sw/cluster/pub/apps//g16/l202.exe)
                          Input orientation:                          
 ---------------------------------------------------------------------
 Center     Atomic      Atomic             Coordinates (Angstroms)
 Number     Number       Type             X           Y           Z
 ---------------------------------------------------------------------
      1          6           0       -0.438060    0.152208    0.248923
      2          6           0        0.963340    0.152138    0.249352
      3          6           0        1.664101    1.365751    0.248786
      4          6           0        0.963462    2.579434    0.247791
      5          6           0       -0.437938    2.579504    0.247365
      6          6           0       -1.138699    1.365891    0.247929
      7          1           0       -0.973106   -0.774412    0.249353
      8          1           0        1.498294   -0.774536    0.250110
      9          1           0        2.734101    1.365697    0.249114
     10          1           0        1.498509    3.506054    0.247358
     11          1           0       -0.972891    3.506177    0.246607
     12          1           0       -2.208698    1.365945    0.247603
 ---------------------------------------------------------------------
                    Distance matrix (angstroms):
                    1          2          3          4          5
     1  C    0.000000
     2  C    1.401400   0.000000
     3  C    2.427296   1.401400   0.000000
     4  C    2.802800   2.427296   1.401400   0.000000
     5  C    2.427296   2.802800   2.427296   1.401400   0.000000
     6  C    1.401400   2.427296   2.802800   2.427296   1.401400
     7  H    1.070000   2.146700   3.396345   3.872800   3.396345
     8  H    2.146700   1.070000   2.146700   3.396345   3.872800
     9  H    3.396345   2.146700   1.070000   2.146700   3.396345
    10  H    3.872800   3.396345   2.146700   1.070000   2.146700
    11  H    3.396345   3.872800   3.396345   2.146700   1.070000
    12  H    2.146700   3.396345   3.872800   3.396345   2.146700
                    6          7          8          9         10
     6  C    0.000000
     7  H    2.146700   0.000000
     8  H    3.396345   2.471400   0.000000
     9  H    3.872800   4.280590   2.471400   0.000000
    10  H    3.396345   4.942800   4.280590   2.471400   0.000000
    11  H    2.146700   4.280590   4.942800   4.280590   2.471400
    12  H    1.070000   2.471400   4.280590   4.942800   4.280590
                   11         12
    11  H    0.000000
    12  H    2.471400   0.000000
 This structure is nearly, but not quite of a higher symmetry.
 Consider Symm=Loose if the higher symmetry is desired.
 Stoichiometry    C6H6
 Framework group  C1[X(C6H6)]
 Deg. of freedom    30
 Full point group                 C1      NOp   1
 Largest Abelian subgroup         C1      NOp   1
 Largest concise Abelian subgroup C1      NOp   1
                         Standard orientation:                         
 ---------------------------------------------------------------------
 Center     Atomic      Atomic             Coordinates (Angstroms)
 Number     Number       Type             X           Y           Z
 ---------------------------------------------------------------------
      1          6           0       -0.314045   -1.365759    0.000566
      2          6           0       -1.339804   -0.410908    0.000993
      3          6           0       -1.025759    0.954851    0.000428
      4          6           0        0.314045    1.365759   -0.000565
      5          6           0        1.339804    0.410908   -0.000994
      6          6           0        1.025759   -0.954851   -0.000428
      7          1           0       -0.553826   -2.408546    0.000999
      8          1           0       -2.362775   -0.724645    0.001752
      9          1           0       -1.808949    1.683901    0.000754
     10          1           0        0.553826    2.408546   -0.000995
     11          1           0        2.362775    0.724645   -0.001754
     12          1           0        1.808949   -1.683901   -0.000756
 ---------------------------------------------------------------------
 Rotational constants (GHZ):           5.6677156           5.6677155           2.8338578
 Leave Link  202 at Thu Jul 10 10:48:28 2025, MaxMem=   104857600 cpu:               0.0 elap:               0.0
 (Enter /sw/cluster/pub/apps//g16/l301.exe)
 Standard basis: 6-31G(d) (6D, 7F)
 Ernie: Thresh=  0.10000D-02 Tol=  0.10000D-05 Strict=F.
 There are   102 symmetry adapted cartesian basis functions of A   symmetry.
 There are   102 symmetry adapted basis functions of A   symmetry.
   102 basis functions,   192 primitive gaussians,   102 cartesian basis functions
    21 alpha electrons       21 beta electrons
       nuclear repulsion energy       203.0814684940 Hartrees.
 IExCor=  402 DFT=T Ex+Corr=B3LYP ExCW=0 ScaHFX=  0.200000
 ScaDFX=  0.800000  0.720000  1.000000  0.810000 ScalE2=  1.000000  1.000000
 IRadAn=      5 IRanWt=     -1 IRanGd=            0 ICorTp=0 IEmpDi=  4
 NAtoms=   12 NActive=   12 NUniq=   12 SFac= 1.00D+00 NAtFMM=   60 NAOKFM=F Big=F
 Integral buffers will be    131072 words long.
 Raffenetti 2 integral format.
 Two-electron integral symmetry is turned on.
 Leave Link  301 at Thu Jul 10 10:48:28 2025, MaxMem=   104857600 cpu:               0.0 elap:               0.0
 (Enter /sw/cluster/pub/apps//g16/l302.exe)
 NPDir=0 NMtPBC=     1 NCelOv=     1 NCel=       1 NClECP=     1 NCelD=      1
         NCelK=      1 NCelE2=     1 NClLst=     1 CellRange=     0.0.
 One-electron integrals computed using PRISM.
 One-electron integral symmetry used in STVInt
 NBasis=   102 RedAO= T EigKep=  5.33D-04  NBF=   102
 NBsUse=   102 1.00D-06 EigRej= -1.00D+00 NBFU=   102
 Precomputing XC quadrature grid using
 IXCGrd= 4 IRadAn=           5 IRanWt=          -1 IRanGd=           0 AccXCQ= 0.00D+00.
 Generated NRdTot=       0 NPtTot=           0 NUsed=           0 NTot=          32
 NSgBfM=   102   102   102   102   102 MxSgAt=    12 MxSgA2=    12.
 Leave Link  302 at Thu Jul 10 10:48:28 2025, MaxMem=   104857600 cpu:               0.1 elap:               0.1
 (Enter /sw/cluster/pub/apps//g16/l303.exe)
 DipDrv:  MaxL=1.
 Leave Link  303 at Thu Jul 10 10:48:28 2025, MaxMem=   104857600 cpu:               0.0 elap:               0.0
 (Enter /sw/cluster/pub/apps//g16/l401.exe)
 ExpMin= 1.61D-01 ExpMax= 3.05D+03 ExpMxC= 4.57D+02 IAcc=3 IRadAn=         5 AccDes= 0.00D+00
 Harris functional with IExCor=  402 and IRadAn=       5 diagonalized for initial guess.
 HarFok:  IExCor=  402 AccDes= 0.00D+00 IRadAn=         5 IDoV= 1 UseB2=F ITyADJ=14
 ICtDFT=  3500011 ScaDFX=  1.000000  1.000000  1.000000  1.000000
 FoFCou: FMM=F IPFlag=           0 FMFlag=      100000 FMFlg1=           0
         NFxFlg=           0 DoJE=T BraDBF=F KetDBF=T FulRan=T
         wScrn=  0.000000 ICntrl=       500 IOpCl=  0 I1Cent=   200000004 NGrid=           0
         NMat0=    1 NMatS0=      1 NMatT0=    0 NMatD0=    1 NMtDS0=    0 NMtDT0=    0
 Petite list used in FoFCou.
 Harris En= -232.279179366771    
 JPrj=0 DoOrth=F DoCkMO=F.
 Leave Link  401 at Thu Jul 10 10:48:29 2025, MaxMem=   104857600 cpu:               0.8 elap:               0.8
 (Enter /sw/cluster/pub/apps//g16/l502.exe)
 Keep R1 ints in memory in canonical form, NReq=14726134.
 FoFCou: FMM=F IPFlag=           0 FMFlag=           0 FMFlg1=           0
         NFxFlg=           0 DoJE=F BraDBF=F KetDBF=F FulRan=T
         wScrn=  0.000000 ICntrl=       600 IOpCl=  0 I1Cent=           0 NGrid=           0
         NMat0=    1 NMatS0=   5253 NMatT0=    0 NMatD0=    1 NMtDS0=    0 NMtDT0=    0
 Symmetry not used in FoFCou.
 Two-electron integral symmetry not used.
 Closed shell SCF:
 Using DIIS extrapolation, IDIIS=  1040.
 NGot=   104857600 LenX=    91035279 LenY=    91024434
 Requested convergence on RMS density matrix=1.00D-08 within 128 cycles.
 Requested convergence on MAX density matrix=1.00D-06.
 Requested convergence on             energy=1.00D-06.
 No special actions if energy rises.
 Integral accuracy reduced to 1.0D-05 until final iterations.

 Cycle   1  Pass 0  IDiag  1:
 E= -232.094739131213    
 DIIS: error= 4.50D-02 at cycle   1 NSaved=   1.
 NSaved= 1 IEnMin= 1 EnMin= -232.094739131213     IErMin= 1 ErrMin= 4.50D-02
 ErrMax= 4.50D-02  0.00D+00 EMaxC= 1.00D-01 BMatC= 1.32D-01 BMatP= 1.32D-01
 IDIUse=3 WtCom= 5.50D-01 WtEn= 4.50D-01
 Coeff-Com:  0.100D+01
 Coeff-En:   0.100D+01
 Coeff:      0.100D+01
 Gap=     0.248 Goal=   None    Shift=    0.000
 GapD=    0.248 DampG=1.000 DampE=0.500 DampFc=0.5000 IDamp=-1.
 Damping current iteration by 5.00D-01
 RMSDP=8.28D-03 MaxDP=1.11D-01              OVMax= 1.52D-01

 Cycle   2  Pass 0  IDiag  1:
 E= -232.168377089298     Delta-E=       -0.073637958085 Rises=F Damp=T
 DIIS: error= 7.88D-03 at cycle   2 NSaved=   2.
 NSaved= 2 IEnMin= 2 EnMin= -232.168377089298     IErMin= 2 ErrMin= 7.88D-03
 ErrMax= 7.88D-03  0.00D+00 EMaxC= 1.00D-01 BMatC= 6.46D-03 BMatP= 1.32D-01
 IDIUse=3 WtCom= 9.21D-01 WtEn= 7.88D-02
 Coeff-Com: -0.757D-02 0.101D+01
 Coeff-En:   0.000D+00 0.100D+01
 Coeff:     -0.697D-02 0.101D+01
 Gap=     0.251 Goal=   None    Shift=    0.000
 RMSDP=1.72D-03 MaxDP=1.70D-02 DE=-7.36D-02 OVMax= 8.72D-02

 Cycle   3  Pass 0  IDiag  1:
 E= -232.246469276365     Delta-E=       -0.078092187067 Rises=F Damp=F
 DIIS: error= 4.25D-03 at cycle   3 NSaved=   3.
 NSaved= 3 IEnMin= 3 EnMin= -232.246469276365     IErMin= 3 ErrMin= 4.25D-03
 ErrMax= 4.25D-03  0.00D+00 EMaxC= 1.00D-01 BMatC= 1.01D-03 BMatP= 6.46D-03
 IDIUse=3 WtCom= 9.58D-01 WtEn= 4.25D-02
 Coeff-Com: -0.410D-01 0.247D+00 0.793D+00
 Coeff-En:   0.000D+00 0.000D+00 0.100D+01
 Coeff:     -0.392D-01 0.237D+00 0.802D+00
 Gap=     0.248 Goal=   None    Shift=    0.000
 RMSDP=4.38D-04 MaxDP=3.54D-03 DE=-7.81D-02 OVMax= 7.74D-03

 Cycle   4  Pass 0  IDiag  1:
 E= -232.247374514019     Delta-E=       -0.000905237654 Rises=F Damp=F
 DIIS: error= 6.40D-04 at cycle   4 NSaved=   4.
 NSaved= 4 IEnMin= 4 EnMin= -232.247374514019     IErMin= 4 ErrMin= 6.40D-04
 ErrMax= 6.40D-04  0.00D+00 EMaxC= 1.00D-01 BMatC= 2.95D-05 BMatP= 1.01D-03
 IDIUse=3 WtCom= 9.94D-01 WtEn= 6.40D-03
 Coeff-Com: -0.846D-02 0.177D-01 0.180D+00 0.811D+00
 Coeff-En:   0.000D+00 0.000D+00 0.000D+00 0.100D+01
 Coeff:     -0.840D-02 0.176D-01 0.179D+00 0.812D+00
 Gap=     0.248 Goal=   None    Shift=    0.000
 RMSDP=5.61D-05 MaxDP=4.33D-04 DE=-9.05D-04 OVMax= 9.83D-04

 Cycle   5  Pass 0  IDiag  1:
 E= -232.247401085459     Delta-E=       -0.000026571440 Rises=F Damp=F
 DIIS: error= 1.75D-05 at cycle   5 NSaved=   5.
 NSaved= 5 IEnMin= 5 EnMin= -232.247401085459     IErMin= 5 ErrMin= 1.75D-05
 ErrMax= 1.75D-05  0.00D+00 EMaxC= 1.00D-01 BMatC= 2.35D-08 BMatP= 2.95D-05
 IDIUse=1 WtCom= 1.00D+00 WtEn= 0.00D+00
 Coeff-Com: -0.298D-03-0.291D-03 0.617D-02 0.495D-01 0.945D+00
 Coeff:     -0.298D-03-0.291D-03 0.617D-02 0.495D-01 0.945D+00
 Gap=     0.248 Goal=   None    Shift=    0.000
 RMSDP=2.71D-06 MaxDP=2.26D-05 DE=-2.66D-05 OVMax= 3.47D-05

 Initial convergence to 1.0D-05 achieved.  Increase integral accuracy.
 Cycle   6  Pass 1  IDiag  1:
 E= -232.247387583473     Delta-E=        0.000013501987 Rises=F Damp=F
 DIIS: error= 1.20D-05 at cycle   1 NSaved=   1.
 NSaved= 1 IEnMin= 1 EnMin= -232.247387583473     IErMin= 1 ErrMin= 1.20D-05
 ErrMax= 1.20D-05  0.00D+00 EMaxC= 1.00D-01 BMatC= 2.37D-09 BMatP= 2.37D-09
 IDIUse=1 WtCom= 1.00D+00 WtEn= 0.00D+00
 Coeff-Com:  0.100D+01
 Coeff:      0.100D+01
 Gap=     0.248 Goal=   None    Shift=    0.000
 RMSDP=2.71D-06 MaxDP=2.26D-05 DE= 1.35D-05 OVMax= 2.54D-05

 Cycle   7  Pass 1  IDiag  1:
 E= -232.247387587103     Delta-E=       -0.000000003630 Rises=F Damp=F
 DIIS: error= 1.22D-06 at cycle   2 NSaved=   2.
 NSaved= 2 IEnMin= 2 EnMin= -232.247387587103     IErMin= 2 ErrMin= 1.22D-06
 ErrMax= 1.22D-06  0.00D+00 EMaxC= 1.00D-01 BMatC= 9.23D-11 BMatP= 2.37D-09
 IDIUse=1 WtCom= 1.00D+00 WtEn= 0.00D+00
 Coeff-Com:  0.363D-01 0.964D+00
 Coeff:      0.363D-01 0.964D+00
 Gap=     0.248 Goal=   None    Shift=    0.000
 RMSDP=2.44D-07 MaxDP=2.09D-06 DE=-3.63D-09 OVMax= 4.23D-06

 Cycle   8  Pass 1  IDiag  1:
 E= -232.247387587130     Delta-E=       -0.000000000027 Rises=F Damp=F
 DIIS: error= 8.88D-07 at cycle   3 NSaved=   3.
 NSaved= 3 IEnMin= 3 EnMin= -232.247387587130     IErMin= 3 ErrMin= 8.88D-07
 ErrMax= 8.88D-07  0.00D+00 EMaxC= 1.00D-01 BMatC= 6.88D-11 BMatP= 9.23D-11
 IDIUse=1 WtCom= 1.00D+00 WtEn= 0.00D+00
 Coeff-Com: -0.149D-01 0.465D+00 0.550D+00
 Coeff:     -0.149D-01 0.465D+00 0.550D+00
 Gap=     0.248 Goal=   None    Shift=    0.000
 RMSDP=9.63D-08 MaxDP=1.09D-06 DE=-2.72D-11 OVMax= 1.93D-06

 Cycle   9  Pass 1  IDiag  1:
 E= -232.247387587197     Delta-E=       -0.000000000067 Rises=F Damp=F
 DIIS: error= 1.17D-07 at cycle   4 NSaved=   4.
 NSaved= 4 IEnMin= 4 EnMin= -232.247387587197     IErMin= 4 ErrMin= 1.17D-07
 ErrMax= 1.17D-07  0.00D+00 EMaxC= 1.00D-01 BMatC= 1.04D-12 BMatP= 6.88D-11
 IDIUse=1 WtCom= 1.00D+00 WtEn= 0.00D+00
 Coeff-Com: -0.652D-02 0.135D+00 0.192D+00 0.680D+00
 Coeff:     -0.652D-02 0.135D+00 0.192D+00 0.680D+00
 Gap=     0.248 Goal=   None    Shift=    0.000
 RMSDP=1.21D-08 MaxDP=2.55D-07 DE=-6.68D-11 OVMax= 3.80D-07

 Cycle  10  Pass 1  IDiag  1:
 E= -232.247387587198     Delta-E=       -0.000000000001 Rises=F Damp=F
 DIIS: error= 4.73D-08 at cycle   5 NSaved=   5.
 NSaved= 5 IEnMin= 5 EnMin= -232.247387587198     IErMin= 5 ErrMin= 4.73D-08
 ErrMax= 4.73D-08  0.00D+00 EMaxC= 1.00D-01 BMatC= 1.53D-13 BMatP= 1.04D-12
 IDIUse=1 WtCom= 1.00D+00 WtEn= 0.00D+00
 Coeff-Com: -0.244D-02 0.452D-01 0.654D-01 0.338D+00 0.553D+00
 Coeff:     -0.244D-02 0.452D-01 0.654D-01 0.338D+00 0.553D+00
 Gap=     0.248 Goal=   None    Shift=    0.000
 RMSDP=4.02D-09 MaxDP=6.69D-08 DE=-9.66D-13 OVMax= 1.57D-07

 SCF Done:  E(RB3LYP) =  -232.247387587     A.U. after   10 cycles
            NFock= 10  Conv=0.40D-08     -V/T= 2.0098
 KE= 2.299982386220D+02 PE=-9.435578233818D+02 EE= 2.782307286785D+02
 Leave Link  502 at Thu Jul 10 10:48:35 2025, MaxMem=   104857600 cpu:               5.5 elap:               5.5
 (Enter /sw/cluster/pub/apps//g16/l601.exe)
 Copying SCF densities to generalized density rwf, IOpCl= 0 IROHF=0.

 **********************************************************************

            Population analysis using the SCF density.

 **********************************************************************

 Orbital symmetries:
       Occupied  (A) (A) (A) (A) (A) (A) (A) (A) (A) (A) (A) (A)
                 (A) (A) (A) (A) (A) (A) (A) (A) (A)
       Virtual   (A) (A) (A) (A) (A) (A) (A) (A) (A) (A) (A) (A)
                 (A) (A) (A) (A) (A) (A) (A) (A) (A) (A) (A) (A)
                 (A) (A) (A) (A) (A) (A) (A) (A) (A) (A) (A) (A)
                 (A) (A) (A) (A) (A) (A) (A) (A) (A) (A) (A) (A)
                 (A) (A) (A) (A) (A) (A) (A) (A) (A) (A) (A) (A)
                 (A) (A) (A) (A) (A) (A) (A) (A) (A) (A) (A) (A)
                 (A) (A) (A) (A) (A) (A) (A) (A) (A)
 The electronic state is 1-A.
 Alpha  occ. eigenvalues --  -10.18651 -10.18625 -10.18625 -10.18572 -10.18572
 Alpha  occ. eigenvalues --  -10.18546  -0.84379  -0.73962  -0.73962  -0.59917
 Alpha  occ. eigenvalues --   -0.59917  -0.52041  -0.46515  -0.43611  -0.41877
 Alpha  occ. eigenvalues --   -0.41877  -0.35719  -0.34163  -0.34163  -0.24513
 Alpha  occ. eigenvalues --   -0.24513
 Alpha virt. eigenvalues --    0.00293   0.00293   0.09694   0.14952   0.14952
 Alpha virt. eigenvalues --    0.16169   0.18398   0.18398   0.19449   0.30242
 Alpha virt. eigenvalues --    0.30242   0.31634   0.31634   0.47662   0.52855
 Alpha virt. eigenvalues --    0.54584   0.54814   0.55955   0.59200   0.60101
 Alpha virt. eigenvalues --    0.60101   0.60326   0.60327   0.62770   0.62770
 Alpha virt. eigenvalues --    0.66790   0.66790   0.74491   0.84655   0.85251
 Alpha virt. eigenvalues --    0.85251   0.87765   0.87765   0.93711   0.93711
 Alpha virt. eigenvalues --    0.95289   0.95594   1.07875   1.07875   1.13939
 Alpha virt. eigenvalues --    1.13940   1.20013   1.26271   1.39731   1.44273
 Alpha virt. eigenvalues --    1.44273   1.48558   1.48558   1.51399   1.51399
 Alpha virt. eigenvalues --    1.76008   1.78532   1.87477   1.90136   1.99210
 Alpha virt. eigenvalues --    1.99210   2.06032   2.06032   2.14754   2.14754
 Alpha virt. eigenvalues --    2.14835   2.14835   2.30522   2.30522   2.31422
 Alpha virt. eigenvalues --    2.54995   2.54995   2.64796   2.70598   2.70598
 Alpha virt. eigenvalues --    2.71571   2.71571   2.76558   3.01009   3.40950
 Alpha virt. eigenvalues --    4.08412   4.12034   4.12034   4.33309   4.33309
 Alpha virt. eigenvalues --    4.66607
          Condensed to atoms (all electrons):
               1          2          3          4          5          6
     1  C    4.850840   0.549074  -0.030575  -0.040643  -0.030576   0.549074
     2  C    0.549074   4.850841   0.549077  -0.030576  -0.040642  -0.030576
     3  C   -0.030575   0.549077   4.850844   0.549074  -0.030576  -0.040642
     4  C   -0.040643  -0.030576   0.549074   4.850840   0.549074  -0.030575
     5  C   -0.030576  -0.040642  -0.030576   0.549074   4.850841   0.549077
     6  C    0.549074  -0.030576  -0.040642  -0.030575   0.549077   4.850844
     7  H    0.360851  -0.044998   0.004915   0.000576   0.004915  -0.044998
     8  H   -0.044998   0.360852  -0.044998   0.004915   0.000576   0.004915
     9  H    0.004915  -0.044998   0.360851  -0.044998   0.004915   0.000576
    10  H    0.000576   0.004915  -0.044998   0.360851  -0.044998   0.004915
    11  H    0.004915   0.000576   0.004915  -0.044998   0.360852  -0.044998
    12  H   -0.044998   0.004915   0.000576   0.004915  -0.044998   0.360851
               7          8          9         10         11         12
     1  C    0.360851  -0.044998   0.004915   0.000576   0.004915  -0.044998
     2  C   -0.044998   0.360852  -0.044998   0.004915   0.000576   0.004915
     3  C    0.004915  -0.044998   0.360851  -0.044998   0.004915   0.000576
     4  C    0.000576   0.004915  -0.044998   0.360851  -0.044998   0.004915
     5  C    0.004915   0.000576   0.004915  -0.044998   0.360852  -0.044998
     6  C   -0.044998   0.004915   0.000576   0.004915  -0.044998   0.360851
     7  H    0.602599  -0.005978  -0.000190   0.000016  -0.000190  -0.005978
     8  H   -0.005978   0.602597  -0.005978  -0.000190   0.000016  -0.000190
     9  H   -0.000190  -0.005978   0.602597  -0.005978  -0.000190   0.000016
    10  H    0.000016  -0.000190  -0.005978   0.602599  -0.005978  -0.000190
    11  H   -0.000190   0.000016  -0.000190  -0.005978   0.602597  -0.005978
    12  H   -0.005978  -0.000190   0.000016  -0.000190  -0.005978   0.602597
 Mulliken charges:
               1
     1  C   -0.128456
     2  C   -0.128462
     3  C   -0.128464
     4  C   -0.128456
     5  C   -0.128462
     6  C   -0.128464
     7  H    0.128460
     8  H    0.128461
     9  H    0.128461
    10  H    0.128460
    11  H    0.128461
    12  H    0.128461
 Sum of Mulliken charges =  -0.00000
 Mulliken charges with hydrogens summed into heavy atoms:
               1
     1  C    0.000004
     2  C   -0.000001
     3  C   -0.000003
     4  C    0.000004
     5  C   -0.000001
     6  C   -0.000003
 Electronic spatial extent (au):  <R**2>=            458.5598
 Charge=             -0.0000 electrons
 Dipole moment (field-independent basis, Debye):
    X=              0.0000    Y=              0.0000    Z=              0.0000  Tot=              0.0000
 Quadrupole moment (field-independent basis, Debye-Ang):
   XX=            -31.3048   YY=            -31.3048   ZZ=            -38.5542
   XY=              0.0000   XZ=             -0.0048   YZ=             -0.0019
 Traceless Quadrupole moment (field-independent basis, Debye-Ang):
   XX=              2.4165   YY=              2.4165   ZZ=             -4.8329
   XY=              0.0000   XZ=             -0.0048   YZ=             -0.0019
 Octapole moment (field-independent basis, Debye-Ang**2):
  XXX=             -0.0000  YYY=              0.0000  ZZZ=              0.0000  XYY=              0.0000
  XXY=              0.0000  XXZ=             -0.0000  XZZ=             -0.0000  YZZ=             -0.0000
  YYZ=              0.0000  XYZ=              0.0000
 Hexadecapole moment (field-independent basis, Debye-Ang**3):
 XXXX=           -269.5389 YYYY=           -269.5391 ZZZZ=            -40.0320 XXXY=              0.0001
 XXXZ=              0.0589 YYYX=             -0.0000 YYYZ=              0.0233 ZZZX=              0.0929
 ZZZY=              0.0368 XXYY=            -89.8463 XXZZ=            -60.1565 YYZZ=            -60.1565
 XXYZ=              0.0078 YYXZ=              0.0196 ZZXY=              0.0000
 N-N= 2.030814684940D+02 E-N=-9.435578245992D+02  KE= 2.299982386220D+02
 No NMR shielding tensors so no spin-rotation constants.
 Leave Link  601 at Thu Jul 10 10:48:35 2025, MaxMem=   104857600 cpu:               0.0 elap:               0.0
 (Enter /sw/cluster/pub/apps//g16/l701.exe)
 ... and contract with generalized density number  0.
 Compute integral first derivatives.
 Leave Link  701 at Thu Jul 10 10:48:35 2025, MaxMem=   104857600 cpu:               0.0 elap:               0.0
 (Enter /sw/cluster/pub/apps//g16/l702.exe)
 L702 exits ... SP integral derivatives will be done elsewhere.
 Leave Link  702 at Thu Jul 10 10:48:35 2025, MaxMem=   104857600 cpu:               0.0 elap:               0.0
 (Enter /sw/cluster/pub/apps//g16/l703.exe)
 Integral derivatives from FoFJK, PRISM(SPDF).
 Compute integral first derivatives, UseDBF=F ICtDFT=           0.
 Calling FoFJK, ICntrl=      2127 FMM=F ISym2X=0 I1Cent= 0 IOpClX= 0 NMat=1 NMatS=1 NMatT=0.
 FoFJK:  IHMeth= 1 ICntrl=    2127 DoSepK=F KAlg= 0 I1Cent=           0 FoldK=F
 IRaf=         0 NMat=       1 IRICut=       1 DoRegI=T DoRafI=F ISym2E= 0 IDoP0=0 IntGTp=1.
 FoFCou: FMM=F IPFlag=           0 FMFlag=      100000 FMFlg1=         800
         NFxFlg=           0 DoJE=F BraDBF=F KetDBF=F FulRan=T
         wScrn=  0.000000 ICntrl=      2127 IOpCl=  0 I1Cent=           0 NGrid=           0
         NMat0=    1 NMatS0=      1 NMatT0=    0 NMatD0=    1 NMtDS0=    0 NMtDT0=    0
 Symmetry not used in FoFCou.
 Leave Link  703 at Thu Jul 10 10:48:37 2025, MaxMem=   104857600 cpu:               2.0 elap:               2.0
 (Enter /sw/cluster/pub/apps//g16/l716.exe)
 Dipole        = 4.30364810D-09 9.90281324D-09 3.84352245D-08
 ***** Axes restored to original set *****
 -------------------------------------------------------------------
 Center     Atomic                   Forces (Hartrees/Bohr)
 Number     Number              X              Y              Z
 -------------------------------------------------------------------
      1        6           0.008183747    0.014172416   -0.000006589
      2        6          -0.008183845    0.014171359   -0.000011586
      3        6          -0.016362477    0.000006138   -0.000005169
      4        6          -0.008183747   -0.014172417    0.000006722
      5        6           0.008183843   -0.014171353    0.000011502
      6        6           0.016362476   -0.000006136    0.000005116
      7        1          -0.006051689   -0.010480177    0.000004905
      8        1           0.006050474   -0.010481464    0.000008605
      9        1           0.012102194   -0.000000190    0.000003698
     10        1           0.006051689    0.010480176   -0.000004842
     11        1          -0.006050471    0.010481459   -0.000008639
     12        1          -0.012102194    0.000000189   -0.000003723
 -------------------------------------------------------------------
 Cartesian Forces:  Max     0.016362477 RMS     0.008309145
 Leave Link  716 at Thu Jul 10 10:48:37 2025, MaxMem=   104857600 cpu:               0.0 elap:               0.0
 (Enter /sw/cluster/pub/apps//g16/l103.exe)

 GradGradGradGradGradGradGradGradGradGradGradGradGradGradGradGradGradGrad
 Berny optimization.
 FormGI is forming the generalized inverse of G from B-inverse, IUseBI=4.
 Internal  Forces:  Max     0.012102454 RMS     0.004276917
 Search for a local minimum.
 Step number   1 out of a maximum of   64
 All quantities printed in internal units (Hartrees-Bohrs-Radians)
 RMS Force = .42769D-02 SwitMx=.10000D-02 MixMth= 1
 Mixed Optimization -- RFO/linear search
 Second derivative matrix not updated -- first step.
 ITU=  0
     Eigenvalues ---    0.02070   0.02070   0.02070   0.02070   0.02070
     Eigenvalues ---    0.02070   0.02070   0.02070   0.02070   0.16000
     Eigenvalues ---    0.16000   0.16000   0.16000   0.16000   0.16000
     Eigenvalues ---    0.22000   0.22000   0.22000   0.37230   0.37230
     Eigenvalues ---    0.37230   0.37230   0.37230   0.37230   0.41268
     Eigenvalues ---    0.41268   0.45389   0.45389   0.45389   0.45389
 RFO step:  Lambda=-2.58290054D-03 EMin= 2.07023645D-02
 Linear search not attempted -- first point.
 Iteration  1 RMS(Cart)=  0.00825753 RMS(Int)=  0.00000002
 Iteration  2 RMS(Cart)=  0.00000002 RMS(Int)=  0.00000000
 ITry= 1 IFail=0 DXMaxC= 2.29D-02 DCOld= 1.00D+10 DXMaxT= 3.00D-01 DXLimC= 3.00D+00 Rises=F
 Variable       Old X    -DE/DX   Delta X   Delta X   Delta X     New X
                                 (Linear)    (Quad)   (Total)
    R1        2.64826  -0.00426   0.00000  -0.00934  -0.00934   2.63892
    R2        2.64826  -0.00426   0.00000  -0.00934  -0.00934   2.63892
    R3        2.02201   0.01210   0.00000   0.03228   0.03228   2.05429
    R4        2.64826  -0.00426   0.00000  -0.00933  -0.00933   2.63893
    R5        2.02201   0.01210   0.00000   0.03228   0.03228   2.05429
    R6        2.64826  -0.00426   0.00000  -0.00934  -0.00934   2.63892
    R7        2.02201   0.01210   0.00000   0.03228   0.03228   2.05429
    R8        2.64826  -0.00426   0.00000  -0.00934  -0.00934   2.63892
    R9        2.02201   0.01210   0.00000   0.03228   0.03228   2.05429
   R10        2.64826  -0.00426   0.00000  -0.00933  -0.00933   2.63893
   R11        2.02201   0.01210   0.00000   0.03228   0.03228   2.05429
   R12        2.02201   0.01210   0.00000   0.03228   0.03228   2.05429
    A1        2.09440   0.00000   0.00000   0.00000   0.00000   2.09440
    A2        2.09440   0.00000   0.00000   0.00000   0.00000   2.09440
    A3        2.09440  -0.00000   0.00000  -0.00000  -0.00000   2.09439
    A4        2.09440   0.00000   0.00000   0.00000   0.00000   2.09440
    A5        2.09440  -0.00000   0.00000  -0.00001  -0.00001   2.09439
    A6        2.09440   0.00000   0.00000   0.00000   0.00000   2.09440
    A7        2.09440  -0.00000   0.00000  -0.00000  -0.00000   2.09439
    A8        2.09440   0.00000   0.00000   0.00000   0.00000   2.09440
    A9        2.09440   0.00000   0.00000   0.00000   0.00000   2.09440
   A10        2.09440   0.00000   0.00000   0.00000   0.00000   2.09440
   A11        2.09440  -0.00000   0.00000  -0.00000  -0.00000   2.09439
   A12        2.09440   0.00000   0.00000   0.00000   0.00000   2.09440
   A13        2.09440   0.00000   0.00000   0.00000   0.00000   2.09440
   A14        2.09440  -0.00000   0.00000  -0.00001  -0.00001   2.09439
   A15        2.09440   0.00000   0.00000   0.00000   0.00000   2.09440
   A16        2.09440  -0.00000   0.00000  -0.00000  -0.00000   2.09439
   A17        2.09440   0.00000   0.00000   0.00000   0.00000   2.09440
   A18        2.09440   0.00000   0.00000   0.00000   0.00000   2.09440
    D1       -0.00000   0.00000   0.00000   0.00000   0.00000  -0.00000
    D2        3.14159   0.00000   0.00000   0.00000   0.00000   3.14159
    D3        3.14159   0.00000   0.00000   0.00000   0.00000   3.14159
    D4       -0.00000  -0.00000   0.00000  -0.00000  -0.00000  -0.00000
    D5        0.00000  -0.00000   0.00000  -0.00000  -0.00000   0.00000
    D6       -3.14159  -0.00000   0.00000  -0.00000  -0.00000   3.14159
    D7       -3.14159  -0.00000   0.00000  -0.00000  -0.00000  -3.14159
    D8        0.00000  -0.00000   0.00000  -0.00000  -0.00000   0.00000
    D9       -0.00000   0.00000   0.00000   0.00000   0.00000   0.00000
   D10       -3.14159  -0.00000   0.00000  -0.00000  -0.00000   3.14159
   D11        3.14159   0.00000   0.00000   0.00000   0.00000  -3.14159
   D12       -0.00000  -0.00000   0.00000  -0.00000  -0.00000  -0.00000
   D13        0.00000  -0.00000   0.00000  -0.00000  -0.00000  -0.00000
   D14       -3.14159  -0.00000   0.00000  -0.00000  -0.00000   3.14159
   D15       -3.14159  -0.00000   0.00000  -0.00000  -0.00000  -3.14159
   D16        0.00000  -0.00000   0.00000  -0.00000  -0.00000   0.00000
   D17       -0.00000   0.00000   0.00000   0.00000   0.00000   0.00000
   D18        3.14159   0.00000   0.00000   0.00000   0.00000   3.14159
   D19        3.14159   0.00000   0.00000   0.00000   0.00000  -3.14159
   D20       -0.00000   0.00000   0.00000   0.00000   0.00000  -0.00000
   D21        0.00000  -0.00000   0.00000  -0.00000  -0.00000  -0.00000
   D22       -3.14159  -0.00000   0.00000  -0.00000  -0.00000   3.14159
   D23       -3.14159  -0.00000   0.00000  -0.00000  -0.00000  -3.14159
   D24        0.00000   0.00000   0.00000   0.00000   0.00000   0.00000
         Item               Value     Threshold  Converged?
 Maximum Force            0.012102     0.000015     NO 
 RMS     Force            0.004277     0.000010     NO 
 Maximum Displacement     0.022950     0.000060     NO 
 RMS     Displacement     0.008258     0.000040     NO 
 Predicted change in Energy=-1.300201D-03
 Lowest energy point so far.  Saving SCF results.
 GradGradGradGradGradGradGradGradGradGradGradGradGradGradGradGradGradGrad

 Leave Link  103 at Thu Jul 10 10:48:37 2025, MaxMem=   104857600 cpu:               0.0 elap:               0.0
 (Enter /sw/cluster/pub/apps//g16/l202.exe)
                          Input orientation:                          
 ---------------------------------------------------------------------
 Center     Atomic      Atomic             Coordinates (Angstroms)
 Number     Number       Type             X           Y           Z
 ---------------------------------------------------------------------
      1          6           0       -0.435590    0.156487    0.248921
      2          6           0        0.960868    0.156420    0.249348
      3          6           0        1.659163    1.365756    0.248784
      4          6           0        0.960992    2.575155    0.247794
      5          6           0       -0.435466    2.575222    0.247368
      6          6           0       -1.133760    1.365886    0.247931
      7          1           0       -0.979180   -0.784926    0.249359
      8          1           0        1.504359   -0.785052    0.250118
      9          1           0        2.746246    1.365702    0.249116
     10          1           0        1.504583    3.516568    0.247356
     11          1           0       -0.978956    3.516693    0.246597
     12          1           0       -2.220843    1.365940    0.247599
 ---------------------------------------------------------------------
                    Distance matrix (angstroms):
                    1          2          3          4          5
     1  C    0.000000
     2  C    1.396458   0.000000
     3  C    2.418743   1.396463   0.000000
     4  C    2.792920   2.418736   1.396456   0.000000
     5  C    2.418736   2.792912   2.418735   1.396458   0.000000
     6  C    1.396456   2.418735   2.792923   2.418743   1.396463
     7  H    1.087083   2.156367   3.403863   3.880003   3.403855
     8  H    2.156362   1.087084   2.156371   3.403857   3.879996
     9  H    3.403862   2.156371   1.087083   2.156365   3.403855
    10  H    3.880003   3.403855   2.156361   1.087083   2.156367
    11  H    3.403857   3.879996   3.403852   2.156362   1.087084
    12  H    2.156365   3.403855   3.880006   3.403862   2.156371
                    6          7          8          9         10
     6  C    0.000000
     7  H    2.156361   0.000000
     8  H    3.403852   2.483539   0.000000
     9  H    3.880006   4.301627   2.483551   0.000000
    10  H    3.403863   4.967085   4.301621   2.483537   0.000000
    11  H    2.156371   4.301621   4.967079   4.301616   2.483539
    12  H    1.087083   2.483537   4.301616   4.967089   4.301627
                   11         12
    11  H    0.000000
    12  H    2.483551   0.000000
 Stoichiometry    C6H6
 Framework group  C1[X(C6H6)]
 Deg. of freedom    30
 Full point group                 C1      NOp   1
 RotChk:  IX=1 Diff= 1.79D+00
 Largest Abelian subgroup         C1      NOp   1
 Largest concise Abelian subgroup C1      NOp   1
                         Standard orientation:                         
 ---------------------------------------------------------------------
 Center     Atomic      Atomic             Coordinates (Angstroms)
 Number     Number       Type             X           Y           Z
 ---------------------------------------------------------------------
      1          6           0        1.269061   -0.582739   -0.000000
      2          6           0        0.129863   -1.390405   -0.000000
      3          6           0       -1.139201   -0.807666    0.000000
      4          6           0       -1.269061    0.582739   -0.000000
      5          6           0       -0.129863    1.390405    0.000000
      6          6           0        1.139201    0.807666   -0.000000
      7          1           0        2.256970   -1.036374    0.000001
      8          1           0        0.230960   -2.472777   -0.000000
      9          1           0       -2.026017   -1.436401   -0.000000
     10          1           0       -2.256970    1.036374   -0.000000
     11          1           0       -0.230960    2.472777   -0.000000
     12          1           0        2.026017    1.436401   -0.000000
 ---------------------------------------------------------------------
 Rotational constants (GHZ):           5.6878792           5.6878340           2.8439283
 Leave Link  202 at Thu Jul 10 10:48:37 2025, MaxMem=   104857600 cpu:               0.0 elap:               0.0
 (Enter /sw/cluster/pub/apps//g16/l301.exe)
 Standard basis: 6-31G(d) (6D, 7F)
 Ernie: Thresh=  0.10000D-02 Tol=  0.10000D-05 Strict=F.
 There are   102 symmetry adapted cartesian basis functions of A   symmetry.
 There are   102 symmetry adapted basis functions of A   symmetry.
   102 basis functions,   192 primitive gaussians,   102 cartesian basis functions
    21 alpha electrons       21 beta electrons
       nuclear repulsion energy       203.2040891074 Hartrees.
 IExCor=  402 DFT=T Ex+Corr=B3LYP ExCW=0 ScaHFX=  0.200000
 ScaDFX=  0.800000  0.720000  1.000000  0.810000 ScalE2=  1.000000  1.000000
 IRadAn=      5 IRanWt=     -1 IRanGd=            0 ICorTp=0 IEmpDi=  4
 NAtoms=   12 NActive=   12 NUniq=   12 SFac= 1.00D+00 NAtFMM=   60 NAOKFM=F Big=F
 Integral buffers will be    131072 words long.
 Raffenetti 2 integral format.
 Two-electron integral symmetry is turned on.
 Leave Link  301 at Thu Jul 10 10:48:37 2025, MaxMem=   104857600 cpu:               0.0 elap:               0.0
 (Enter /sw/cluster/pub/apps//g16/l302.exe)
 NPDir=0 NMtPBC=     1 NCelOv=     1 NCel=       1 NClECP=     1 NCelD=      1
         NCelK=      1 NCelE2=     1 NClLst=     1 CellRange=     0.0.
 One-electron integrals computed using PRISM.
 One-electron integral symmetry used in STVInt
 NBasis=   102 RedAO= T EigKep=  5.21D-04  NBF=   102
 NBsUse=   102 1.00D-06 EigRej= -1.00D+00 NBFU=   102
 Precomputing XC quadrature grid using
 IXCGrd= 4 IRadAn=           5 IRanWt=          -1 IRanGd=           0 AccXCQ= 0.00D+00.
 Generated NRdTot=       0 NPtTot=           0 NUsed=           0 NTot=          32
 NSgBfM=   102   102   102   102   102 MxSgAt=    12 MxSgA2=    12.
 Leave Link  302 at Thu Jul 10 10:48:37 2025, MaxMem=   104857600 cpu:               0.1 elap:               0.1
 (Enter /sw/cluster/pub/apps//g16/l303.exe)
 DipDrv:  MaxL=1.
 Leave Link  303 at Thu Jul 10 10:48:37 2025, MaxMem=   104857600 cpu:               0.0 elap:               0.0
 (Enter /sw/cluster/pub/apps//g16/l401.exe)
 Initial guess from the checkpoint file:  "bz.chk"
 B after Tr=    -0.000000    0.000000    0.000000
         Rot=    0.775576   -0.000310    0.000174   -0.631255 Ang= -78.29 deg.
 Guess basis will be translated and rotated to current coordinates.
 JPrj=2 DoOrth=T DoCkMO=T.
 Generating alternative initial guess.
 ExpMin= 1.61D-01 ExpMax= 3.05D+03 ExpMxC= 4.57D+02 IAcc=2 IRadAn=         4 AccDes= 0.00D+00
 Harris functional with IExCor=  402 and IRadAn=       4 diagonalized for initial guess.
 HarFok:  IExCor=  402 AccDes= 0.00D+00 IRadAn=         4 IDoV= 1 UseB2=F ITyADJ=14
 ICtDFT=  3500011 ScaDFX=  1.000000  1.000000  1.000000  1.000000
 FoFCou: FMM=F IPFlag=           0 FMFlag=      100000 FMFlg1=           0
         NFxFlg=           0 DoJE=T BraDBF=F KetDBF=T FulRan=T
         wScrn=  0.000000 ICntrl=       500 IOpCl=  0 I1Cent=   200000004 NGrid=           0
         NMat0=    1 NMatS0=      1 NMatT0=    0 NMatD0=    1 NMtDS0=    0 NMtDT0=    0
 Petite list used in FoFCou.
 Harris En= -232.277591505818    
 Leave Link  401 at Thu Jul 10 10:48:37 2025, MaxMem=   104857600 cpu:               0.3 elap:               0.3
 (Enter /sw/cluster/pub/apps//g16/l502.exe)
 Keep R1 ints in memory in canonical form, NReq=14726134.
 FoFCou: FMM=F IPFlag=           0 FMFlag=           0 FMFlg1=           0
         NFxFlg=           0 DoJE=F BraDBF=F KetDBF=F FulRan=T
         wScrn=  0.000000 ICntrl=       600 IOpCl=  0 I1Cent=           0 NGrid=           0
         NMat0=    1 NMatS0=   5253 NMatT0=    0 NMatD0=    1 NMtDS0=    0 NMtDT0=    0
 Symmetry not used in FoFCou.
 Two-electron integral symmetry not used.
 Closed shell SCF:
 Using DIIS extrapolation, IDIIS=  1040.
 NGot=   104857600 LenX=    91035279 LenY=    91024434
 Requested convergence on RMS density matrix=1.00D-08 within 128 cycles.
 Requested convergence on MAX density matrix=1.00D-06.
 Requested convergence on             energy=1.00D-06.
 No special actions if energy rises.
 Integral accuracy reduced to 1.0D-05 until final iterations.

 Cycle   1  Pass 0  IDiag  1:
 E= -232.248336219098    
 DIIS: error= 1.54D-03 at cycle   1 NSaved=   1.
 NSaved= 1 IEnMin= 1 EnMin= -232.248336219098     IErMin= 1 ErrMin= 1.54D-03
 ErrMax= 1.54D-03  0.00D+00 EMaxC= 1.00D-01 BMatC= 2.11D-04 BMatP= 2.11D-04
 IDIUse=3 WtCom= 9.85D-01 WtEn= 1.54D-02
 Coeff-Com:  0.100D+01
 Coeff-En:   0.100D+01
 Coeff:      0.100D+01
 Gap=     1.901 Goal=   None    Shift=    0.000
 GapD=    1.901 DampG=2.000 DampE=1.000 DampFc=2.0000 IDamp=-1.
 RMSDP=2.58D-04 MaxDP=2.42D-03              OVMax= 4.96D-03

 Cycle   2  Pass 0  IDiag  1:
 E= -232.248632727533     Delta-E=       -0.000296508435 Rises=F Damp=F
 DIIS: error= 3.38D-04 at cycle   2 NSaved=   2.
 NSaved= 2 IEnMin= 2 EnMin= -232.248632727533     IErMin= 2 ErrMin= 3.38D-04
 ErrMax= 3.38D-04  0.00D+00 EMaxC= 1.00D-01 BMatC= 1.25D-05 BMatP= 2.11D-04
 IDIUse=3 WtCom= 9.97D-01 WtEn= 3.38D-03
 Coeff-Com:  0.130D+00 0.870D+00
 Coeff-En:   0.000D+00 0.100D+01
 Coeff:      0.129D+00 0.871D+00
 Gap=     0.250 Goal=   None    Shift=    0.000
 RMSDP=5.29D-05 MaxDP=6.52D-04 DE=-2.97D-04 OVMax= 7.82D-04

 Cycle   3  Pass 0  IDiag  1:
 E= -232.248643864027     Delta-E=       -0.000011136495 Rises=F Damp=F
 DIIS: error= 1.02D-04 at cycle   3 NSaved=   3.
 NSaved= 3 IEnMin= 3 EnMin= -232.248643864027     IErMin= 3 ErrMin= 1.02D-04
 ErrMax= 1.02D-04  0.00D+00 EMaxC= 1.00D-01 BMatC= 7.99D-07 BMatP= 1.25D-05
 IDIUse=3 WtCom= 9.99D-01 WtEn= 1.02D-03
 Coeff-Com: -0.246D-02 0.185D+00 0.818D+00
 Coeff-En:   0.000D+00 0.000D+00 0.100D+01
 Coeff:     -0.246D-02 0.185D+00 0.818D+00
 Gap=     0.250 Goal=   None    Shift=    0.000
 RMSDP=1.03D-05 MaxDP=1.12D-04 DE=-1.11D-05 OVMax= 2.01D-04

 Cycle   4  Pass 0  IDiag  1:
 E= -232.248644639646     Delta-E=       -0.000000775619 Rises=F Damp=F
 DIIS: error= 1.68D-05 at cycle   4 NSaved=   4.
 NSaved= 4 IEnMin= 4 EnMin= -232.248644639646     IErMin= 4 ErrMin= 1.68D-05
 ErrMax= 1.68D-05  0.00D+00 EMaxC= 1.00D-01 BMatC= 2.08D-08 BMatP= 7.99D-07
 IDIUse=1 WtCom= 1.00D+00 WtEn= 0.00D+00
 Coeff-Com: -0.264D-02 0.321D-01 0.192D+00 0.779D+00
 Coeff:     -0.264D-02 0.321D-01 0.192D+00 0.779D+00
 Gap=     0.250 Goal=   None    Shift=    0.000
 RMSDP=2.55D-06 MaxDP=3.07D-05 DE=-7.76D-07 OVMax= 4.70D-05

 Initial convergence to 1.0D-05 achieved.  Increase integral accuracy.
 Cycle   5  Pass 1  IDiag  1:
 E= -232.248650885234     Delta-E=       -0.000006245588 Rises=F Damp=F
 DIIS: error= 1.09D-05 at cycle   1 NSaved=   1.
 NSaved= 1 IEnMin= 1 EnMin= -232.248650885234     IErMin= 1 ErrMin= 1.09D-05
 ErrMax= 1.09D-05  0.00D+00 EMaxC= 1.00D-01 BMatC= 7.42D-09 BMatP= 7.42D-09
 IDIUse=1 WtCom= 1.00D+00 WtEn= 0.00D+00
 Coeff-Com:  0.100D+01
 Coeff:      0.100D+01
 Gap=     0.250 Goal=   None    Shift=    0.000
 RMSDP=2.55D-06 MaxDP=3.07D-05 DE=-6.25D-06 OVMax= 4.10D-05

 Cycle   6  Pass 1  IDiag  1:
 E= -232.248650885144     Delta-E=        0.000000000090 Rises=F Damp=F
 DIIS: error= 8.84D-06 at cycle   2 NSaved=   2.
 NSaved= 2 IEnMin= 1 EnMin= -232.248650885234     IErMin= 2 ErrMin= 8.84D-06
 ErrMax= 8.84D-06  0.00D+00 EMaxC= 1.00D-01 BMatC= 7.96D-09 BMatP= 7.42D-09
 IDIUse=1 WtCom= 1.00D+00 WtEn= 0.00D+00
 Coeff-Com:  0.509D+00 0.491D+00
 Coeff:      0.509D+00 0.491D+00
 Gap=     0.250 Goal=   None    Shift=    0.000
 RMSDP=1.03D-06 MaxDP=1.19D-05 DE= 9.01D-11 OVMax= 2.09D-05

 Cycle   7  Pass 1  IDiag  1:
 E= -232.248650893481     Delta-E=       -0.000000008336 Rises=F Damp=F
 DIIS: error= 3.49D-07 at cycle   3 NSaved=   3.
 NSaved= 3 IEnMin= 3 EnMin= -232.248650893481     IErMin= 3 ErrMin= 3.49D-07
 ErrMax= 3.49D-07  0.00D+00 EMaxC= 1.00D-01 BMatC= 5.78D-12 BMatP= 7.42D-09
 IDIUse=1 WtCom= 1.00D+00 WtEn= 0.00D+00
 Coeff-Com: -0.176D-01 0.714D-02 0.101D+01
 Coeff:     -0.176D-01 0.714D-02 0.101D+01
 Gap=     0.250 Goal=   None    Shift=    0.000
 RMSDP=3.37D-08 MaxDP=4.52D-07 DE=-8.34D-09 OVMax= 9.13D-07

 Cycle   8  Pass 1  IDiag  1:
 E= -232.248650893485     Delta-E=       -0.000000000004 Rises=F Damp=F
 DIIS: error= 7.36D-08 at cycle   4 NSaved=   4.
 NSaved= 4 IEnMin= 4 EnMin= -232.248650893485     IErMin= 4 ErrMin= 7.36D-08
 ErrMax= 7.36D-08  0.00D+00 EMaxC= 1.00D-01 BMatC= 7.13D-13 BMatP= 5.78D-12
 IDIUse=1 WtCom= 1.00D+00 WtEn= 0.00D+00
 Coeff-Com: -0.104D-01-0.326D-04 0.415D+00 0.595D+00
 Coeff:     -0.104D-01-0.326D-04 0.415D+00 0.595D+00
 Gap=     0.250 Goal=   None    Shift=    0.000
 RMSDP=9.30D-09 MaxDP=1.87D-07 DE=-4.49D-12 OVMax= 3.49D-07

 SCF Done:  E(RB3LYP) =  -232.248650893     A.U. after    8 cycles
            NFock=  8  Conv=0.93D-08     -V/T= 2.0101
 KE= 2.299276610118D+02 PE=-9.437471756415D+02 EE= 2.783667746289D+02
 Leave Link  502 at Thu Jul 10 10:48:42 2025, MaxMem=   104857600 cpu:               4.7 elap:               4.7
 (Enter /sw/cluster/pub/apps//g16/l701.exe)
 ... and contract with generalized density number  0.
 Compute integral first derivatives.
 Leave Link  701 at Thu Jul 10 10:48:42 2025, MaxMem=   104857600 cpu:               0.1 elap:               0.0
 (Enter /sw/cluster/pub/apps//g16/l702.exe)
 L702 exits ... SP integral derivatives will be done elsewhere.
 Leave Link  702 at Thu Jul 10 10:48:42 2025, MaxMem=   104857600 cpu:               0.0 elap:               0.0
 (Enter /sw/cluster/pub/apps//g16/l703.exe)
 Integral derivatives from FoFJK, PRISM(SPDF).
 Compute integral first derivatives, UseDBF=F ICtDFT=           0.
 Calling FoFJK, ICntrl=      2127 FMM=F ISym2X=0 I1Cent= 0 IOpClX= 0 NMat=1 NMatS=1 NMatT=0.
 FoFJK:  IHMeth= 1 ICntrl=    2127 DoSepK=F KAlg= 0 I1Cent=           0 FoldK=F
 IRaf=         0 NMat=       1 IRICut=       1 DoRegI=T DoRafI=F ISym2E= 0 IDoP0=0 IntGTp=1.
 FoFCou: FMM=F IPFlag=           0 FMFlag=      100000 FMFlg1=         800
         NFxFlg=           0 DoJE=F BraDBF=F KetDBF=F FulRan=T
         wScrn=  0.000000 ICntrl=      2127 IOpCl=  0 I1Cent=           0 NGrid=           0
         NMat0=    1 NMatS0=      1 NMatT0=    0 NMatD0=    1 NMtDS0=    0 NMtDT0=    0
 Symmetry not used in FoFCou.
 Leave Link  703 at Thu Jul 10 10:48:44 2025, MaxMem=   104857600 cpu:               2.0 elap:               2.0
 (Enter /sw/cluster/pub/apps//g16/l716.exe)
 Dipole        =-7.56370802D-08 7.82550775D-08-5.81886534D-09
 ***** Axes restored to original set *****
 -------------------------------------------------------------------
 Center     Atomic                   Forces (Hartrees/Bohr)
 Number     Number              X              Y              Z
 -------------------------------------------------------------------
      1        6          -0.000100558   -0.000174510    0.000000042
      2        6           0.000103723   -0.000173223    0.000000125
      3        6           0.000201716   -0.000001636    0.000000124
      4        6           0.000100552    0.000174507   -0.000000123
      5        6          -0.000103716    0.000173223   -0.000000076
      6        6          -0.000201717    0.000001645   -0.000000091
      7        1           0.000023191    0.000038520    0.000000016
      8        1          -0.000021972    0.000039385   -0.000000035
      9        1          -0.000045059    0.000000108   -0.000000030
     10        1          -0.000023192   -0.000038523    0.000000019
     11        1           0.000021972   -0.000039387    0.000000014
     12        1           0.000045058   -0.000000109    0.000000015
 -------------------------------------------------------------------
 Cartesian Forces:  Max     0.000201717 RMS     0.000084363
 Leave Link  716 at Thu Jul 10 10:48:44 2025, MaxMem=   104857600 cpu:               0.0 elap:               0.0
 (Enter /sw/cluster/pub/apps//g16/l103.exe)

 GradGradGradGradGradGradGradGradGradGradGradGradGradGradGradGradGradGrad
 Berny optimization.
 Using GEDIIS/GDIIS optimizer.
 FormGI is forming the generalized inverse of G from B-inverse, IUseBI=4.
 Internal  Forces:  Max     0.000157887 RMS     0.000054329
 Search for a local minimum.
 Step number   2 out of a maximum of   64
 All quantities printed in internal units (Hartrees-Bohrs-Radians)
 RMS Force = .54329D-04 SwitMx=.10000D-02 MixMth= 2
 Mixed Optimization -- En-DIIS/RFO-DIIS
 Update second derivatives using D2CorX and points    1    2
 DE= -1.26D-03 DEPred=-1.30D-03 R= 9.72D-01
 TightC=F SS=  1.41D+00  RLast= 8.23D-02 DXNew= 5.0454D-01 2.4695D-01
 Trust test= 9.72D-01 RLast= 8.23D-02 DXMaxT set to 3.00D-01
 ITU=  1  0
 Use linear search instead of GDIIS.
     Eigenvalues ---    0.02070   0.02070   0.02070   0.02070   0.02070
     Eigenvalues ---    0.02070   0.02070   0.02070   0.02070   0.16000
     Eigenvalues ---    0.16000   0.16000   0.16000   0.16000   0.16000
     Eigenvalues ---    0.22000   0.22000   0.22000   0.37230   0.37230
     Eigenvalues ---    0.37230   0.37230   0.37230   0.37464   0.41244
     Eigenvalues ---    0.41244   0.45389   0.45389   0.45389   0.45721
 RFO step:  Lambda=-2.33667779D-07 EMin= 2.07023645D-02
 Quartic linear search produced a step of -0.00704.
 Iteration  1 RMS(Cart)=  0.00013573 RMS(Int)=  0.00000000
 Iteration  2 RMS(Cart)=  0.00000000 RMS(Int)=  0.00000000
 ITry= 1 IFail=0 DXMaxC= 3.47D-04 DCOld= 1.00D+10 DXMaxT= 3.00D-01 DXLimC= 3.00D+00 Rises=F
 Variable       Old X    -DE/DX   Delta X   Delta X   Delta X     New X
                                 (Linear)    (Quad)   (Total)
    R1        2.63892   0.00016   0.00007   0.00028   0.00035   2.63927
    R2        2.63892   0.00016   0.00007   0.00028   0.00035   2.63927
    R3        2.05429  -0.00004  -0.00023   0.00010  -0.00013   2.05416
    R4        2.63893   0.00015   0.00007   0.00027   0.00034   2.63927
    R5        2.05429  -0.00005  -0.00023   0.00010  -0.00013   2.05416
    R6        2.63892   0.00016   0.00007   0.00028   0.00035   2.63927
    R7        2.05429  -0.00005  -0.00023   0.00010  -0.00013   2.05416
    R8        2.63892   0.00016   0.00007   0.00028   0.00035   2.63927
    R9        2.05429  -0.00004  -0.00023   0.00010  -0.00013   2.05416
   R10        2.63893   0.00015   0.00007   0.00027   0.00034   2.63927
   R11        2.05429  -0.00005  -0.00023   0.00010  -0.00013   2.05416
   R12        2.05429  -0.00005  -0.00023   0.00010  -0.00013   2.05416
    A1        2.09440   0.00000  -0.00000   0.00000   0.00000   2.09440
    A2        2.09440  -0.00000  -0.00000  -0.00000  -0.00000   2.09440
    A3        2.09439  -0.00000   0.00000  -0.00000  -0.00000   2.09439
    A4        2.09440  -0.00000  -0.00000  -0.00000  -0.00000   2.09440
    A5        2.09439   0.00000   0.00000   0.00000   0.00000   2.09439
    A6        2.09440   0.00000  -0.00000   0.00000   0.00000   2.09440
    A7        2.09439  -0.00000   0.00000  -0.00000  -0.00000   2.09439
    A8        2.09440  -0.00000  -0.00000  -0.00000  -0.00000   2.09439
    A9        2.09440   0.00000  -0.00000   0.00000   0.00000   2.09440
   A10        2.09440   0.00000  -0.00000   0.00000   0.00000   2.09440
   A11        2.09439  -0.00000   0.00000  -0.00000  -0.00000   2.09439
   A12        2.09440  -0.00000  -0.00000  -0.00000  -0.00000   2.09440
   A13        2.09440  -0.00000  -0.00000  -0.00000  -0.00000   2.09440
   A14        2.09439   0.00000   0.00000   0.00000   0.00000   2.09439
   A15        2.09440   0.00000  -0.00000   0.00000   0.00000   2.09440
   A16        2.09439  -0.00000   0.00000  -0.00000  -0.00000   2.09439
   A17        2.09440   0.00000  -0.00000   0.00000   0.00000   2.09440
   A18        2.09440  -0.00000  -0.00000  -0.00000  -0.00000   2.09439
    D1       -0.00000   0.00000  -0.00000   0.00000   0.00000   0.00000
    D2        3.14159  -0.00000  -0.00000  -0.00000  -0.00000   3.14159
    D3        3.14159   0.00000  -0.00000   0.00000   0.00000  -3.14159
    D4       -0.00000   0.00000   0.00000   0.00000   0.00000  -0.00000
    D5        0.00000  -0.00000   0.00000  -0.00000  -0.00000  -0.00000
    D6        3.14159   0.00000   0.00000   0.00000   0.00000  -3.14159
    D7       -3.14159  -0.00000   0.00000  -0.00000  -0.00000   3.14159
    D8        0.00000  -0.00000   0.00000  -0.00000  -0.00000   0.00000
    D9        0.00000  -0.00000  -0.00000  -0.00000  -0.00000  -0.00000
   D10        3.14159   0.00000   0.00000   0.00000   0.00000  -3.14159
   D11       -3.14159  -0.00000  -0.00000  -0.00000  -0.00000   3.14159
   D12       -0.00000   0.00000   0.00000   0.00000   0.00000   0.00000
   D13       -0.00000   0.00000   0.00000   0.00000   0.00000   0.00000
   D14        3.14159   0.00000   0.00000   0.00000   0.00000  -3.14159
   D15       -3.14159  -0.00000   0.00000  -0.00000  -0.00000  -3.14159
   D16        0.00000  -0.00000   0.00000  -0.00000  -0.00000   0.00000
   D17        0.00000  -0.00000  -0.00000  -0.00000  -0.00000  -0.00000
   D18        3.14159   0.00000  -0.00000   0.00000   0.00000   3.14159
   D19       -3.14159  -0.00000  -0.00000  -0.00000  -0.00000   3.14159
   D20       -0.00000   0.00000  -0.00000   0.00000   0.00000  -0.00000
   D21       -0.00000   0.00000   0.00000   0.00000   0.00000   0.00000
   D22        3.14159   0.00000   0.00000   0.00000   0.00000  -3.14159
   D23       -3.14159  -0.00000   0.00000  -0.00000  -0.00000  -3.14159
   D24        0.00000  -0.00000  -0.00000  -0.00000  -0.00000  -0.00000
         Item               Value     Threshold  Converged?
 Maximum Force            0.000158     0.000015     NO 
 RMS     Force            0.000054     0.000010     NO 
 Maximum Displacement     0.000347     0.000060     NO 
 RMS     Displacement     0.000136     0.000040     NO 
 Predicted change in Energy=-1.760588D-07
 Lowest energy point so far.  Saving SCF results.
 GradGradGradGradGradGradGradGradGradGradGradGradGradGradGradGradGradGrad

 Leave Link  103 at Thu Jul 10 10:48:44 2025, MaxMem=   104857600 cpu:               0.0 elap:               0.0
 (Enter /sw/cluster/pub/apps//g16/l202.exe)
                          Input orientation:                          
 ---------------------------------------------------------------------
 Center     Atomic      Atomic             Coordinates (Angstroms)
 Number     Number       Type             X           Y           Z
 ---------------------------------------------------------------------
      1          6           0       -0.435679    0.156331    0.248921
      2          6           0        0.960963    0.156262    0.249348
      3          6           0        1.659346    1.365754    0.248784
      4          6           0        0.961082    2.575310    0.247794
      5          6           0       -0.435560    2.575379    0.247368
      6          6           0       -1.133944    1.365888    0.247931
      7          1           0       -0.979235   -0.785025    0.249360
      8          1           0        1.504419   -0.785151    0.250118
      9          1           0        2.746363    1.365697    0.249116
     10          1           0        1.504637    3.516667    0.247356
     11          1           0       -0.979016    3.516793    0.246597
     12          1           0       -2.220960    1.365945    0.247599
 ---------------------------------------------------------------------
                    Distance matrix (angstroms):
                    1          2          3          4          5
     1  C    0.000000
     2  C    1.396642   0.000000
     3  C    2.419056   1.396642   0.000000
     4  C    2.793278   2.419049   1.396640   0.000000
     5  C    2.419049   2.793279   2.419055   1.396642   0.000000
     6  C    1.396640   2.419055   2.793290   2.419056   1.396642
     7  H    1.087016   2.156476   3.404109   3.880294   3.404101
     8  H    2.156472   1.087017   2.156478   3.404104   3.880295
     9  H    3.404109   2.156475   1.087016   2.156477   3.404110
    10  H    3.880294   3.404101   2.156470   1.087016   2.156476
    11  H    3.404104   3.880295   3.404105   2.156472   1.087017
    12  H    2.156477   3.404110   3.880307   3.404109   2.156475
                    6          7          8          9         10
     6  C    0.000000
     7  H    2.156470   0.000000
     8  H    3.404105   2.483654   0.000000
     9  H    3.880307   4.301823   2.483661   0.000000
    10  H    3.404109   4.967310   4.301819   2.483658   0.000000
    11  H    2.156478   4.301819   4.967312   4.301822   2.483654
    12  H    1.087016   2.483658   4.301822   4.967323   4.301823
                   11         12
    11  H    0.000000
    12  H    2.483661   0.000000
 Stoichiometry    C6H6
 Framework group  C1[X(C6H6)]
 Deg. of freedom    30
 Full point group                 C1      NOp   1
 RotChk:  IX=3 Diff= 7.59D-01
 Largest Abelian subgroup         C1      NOp   1
 Largest concise Abelian subgroup C1      NOp   1
                         Standard orientation:                         
 ---------------------------------------------------------------------
 Center     Atomic      Atomic             Coordinates (Angstroms)
 Number     Number       Type             X           Y           Z
 ---------------------------------------------------------------------
      1          6           0        0.785202   -1.155014    0.000000
      2          6           0       -0.607674   -1.257511    0.000000
      3          6           0       -1.392879   -0.102495   -0.000000
      4          6           0       -0.785202    1.155014    0.000000
      5          6           0        0.607673    1.257511   -0.000000
      6          6           0        1.392879    0.102495    0.000000
      7          1           0        1.396332   -2.053972    0.000000
      8          1           0       -1.080625   -2.236246   -0.000000
      9          1           0       -2.476964   -0.182272   -0.000000
     10          1           0       -1.396332    2.053972    0.000000
     11          1           0        1.080625    2.236246   -0.000000
     12          1           0        2.476964    0.182272   -0.000000
 ---------------------------------------------------------------------
 Rotational constants (GHZ):           5.6865942           5.6865551           2.8432873
 Leave Link  202 at Thu Jul 10 10:48:44 2025, MaxMem=   104857600 cpu:               0.0 elap:               0.0
 (Enter /sw/cluster/pub/apps//g16/l301.exe)
 Standard basis: 6-31G(d) (6D, 7F)
 Ernie: Thresh=  0.10000D-02 Tol=  0.10000D-05 Strict=F.
 There are   102 symmetry adapted cartesian basis functions of A   symmetry.
 There are   102 symmetry adapted basis functions of A   symmetry.
   102 basis functions,   192 primitive gaussians,   102 cartesian basis functions
    21 alpha electrons       21 beta electrons
       nuclear repulsion energy       203.1834827007 Hartrees.
 IExCor=  402 DFT=T Ex+Corr=B3LYP ExCW=0 ScaHFX=  0.200000
 ScaDFX=  0.800000  0.720000  1.000000  0.810000 ScalE2=  1.000000  1.000000
 IRadAn=      5 IRanWt=     -1 IRanGd=            0 ICorTp=0 IEmpDi=  4
 NAtoms=   12 NActive=   12 NUniq=   12 SFac= 1.00D+00 NAtFMM=   60 NAOKFM=F Big=F
 Integral buffers will be    131072 words long.
 Raffenetti 2 integral format.
 Two-electron integral symmetry is turned on.
 Leave Link  301 at Thu Jul 10 10:48:44 2025, MaxMem=   104857600 cpu:               0.0 elap:               0.0
 (Enter /sw/cluster/pub/apps//g16/l302.exe)
 NPDir=0 NMtPBC=     1 NCelOv=     1 NCel=       1 NClECP=     1 NCelD=      1
         NCelK=      1 NCelE2=     1 NClLst=     1 CellRange=     0.0.
 One-electron integrals computed using PRISM.
 One-electron integral symmetry used in STVInt
 NBasis=   102 RedAO= T EigKep=  5.21D-04  NBF=   102
 NBsUse=   102 1.00D-06 EigRej= -1.00D+00 NBFU=   102
 Precomputing XC quadrature grid using
 IXCGrd= 4 IRadAn=           5 IRanWt=          -1 IRanGd=           0 AccXCQ= 0.00D+00.
 Generated NRdTot=       0 NPtTot=           0 NUsed=           0 NTot=          32
 NSgBfM=   102   102   102   102   102 MxSgAt=    12 MxSgA2=    12.
 Leave Link  302 at Thu Jul 10 10:48:44 2025, MaxMem=   104857600 cpu:               0.1 elap:               0.1
 (Enter /sw/cluster/pub/apps//g16/l303.exe)
 DipDrv:  MaxL=1.
 Leave Link  303 at Thu Jul 10 10:48:44 2025, MaxMem=   104857600 cpu:               0.0 elap:               0.0
 (Enter /sw/cluster/pub/apps//g16/l401.exe)
 Initial guess from the checkpoint file:  "bz.chk"
 B after Tr=     0.000000   -0.000000    0.000000
         Rot=    0.963333    0.000000   -0.000000    0.268308 Ang=  31.13 deg.
 Guess basis will be translated and rotated to current coordinates.
 JPrj=2 DoOrth=T DoCkMO=T.
 Leave Link  401 at Thu Jul 10 10:48:44 2025, MaxMem=   104857600 cpu:               0.0 elap:               0.0
 (Enter /sw/cluster/pub/apps//g16/l502.exe)
 Keep R1 ints in memory in canonical form, NReq=14726134.
 FoFCou: FMM=F IPFlag=           0 FMFlag=           0 FMFlg1=           0
         NFxFlg=           0 DoJE=F BraDBF=F KetDBF=F FulRan=T
         wScrn=  0.000000 ICntrl=       600 IOpCl=  0 I1Cent=           0 NGrid=           0
         NMat0=    1 NMatS0=   5253 NMatT0=    0 NMatD0=    1 NMtDS0=    0 NMtDT0=    0
 Symmetry not used in FoFCou.
 Two-electron integral symmetry not used.
 Closed shell SCF:
 Using DIIS extrapolation, IDIIS=  1040.
 NGot=   104857600 LenX=    91035279 LenY=    91024434
 Requested convergence on RMS density matrix=1.00D-08 within 128 cycles.
 Requested convergence on MAX density matrix=1.00D-06.
 Requested convergence on             energy=1.00D-06.
 No special actions if energy rises.

 Cycle   1  Pass 1  IDiag  1:
 E= -232.248651251050    
 DIIS: error= 2.19D-05 at cycle   1 NSaved=   1.
 NSaved= 1 IEnMin= 1 EnMin= -232.248651251050     IErMin= 1 ErrMin= 2.19D-05
 ErrMax= 2.19D-05  0.00D+00 EMaxC= 1.00D-01 BMatC= 3.61D-08 BMatP= 3.61D-08
 IDIUse=1 WtCom= 1.00D+00 WtEn= 0.00D+00
 Coeff-Com:  0.100D+01
 Coeff:      0.100D+01
 Gap=     1.889 Goal=   None    Shift=    0.000
 RMSDP=3.22D-06 MaxDP=3.42D-05              OVMax= 5.64D-05

 Cycle   2  Pass 1  IDiag  1:
 E= -232.248651294506     Delta-E=       -0.000000043455 Rises=F Damp=F
 DIIS: error= 9.08D-06 at cycle   2 NSaved=   2.
 NSaved= 2 IEnMin= 2 EnMin= -232.248651294506     IErMin= 2 ErrMin= 9.08D-06
 ErrMax= 9.08D-06  0.00D+00 EMaxC= 1.00D-01 BMatC= 7.01D-09 BMatP= 3.61D-08
 IDIUse=1 WtCom= 1.00D+00 WtEn= 0.00D+00
 Coeff-Com:  0.247D+00 0.753D+00
 Coeff:      0.247D+00 0.753D+00
 Gap=     0.250 Goal=   None    Shift=    0.000
 RMSDP=1.29D-06 MaxDP=1.46D-05 DE=-4.35D-08 OVMax= 2.71D-05

 Cycle   3  Pass 1  IDiag  1:
 E= -232.248651299150     Delta-E=       -0.000000004645 Rises=F Damp=F
 DIIS: error= 4.40D-06 at cycle   3 NSaved=   3.
 NSaved= 3 IEnMin= 3 EnMin= -232.248651299150     IErMin= 3 ErrMin= 4.40D-06
 ErrMax= 4.40D-06  0.00D+00 EMaxC= 1.00D-01 BMatC= 1.98D-09 BMatP= 7.01D-09
 IDIUse=1 WtCom= 1.00D+00 WtEn= 0.00D+00
 Coeff-Com: -0.603D-02 0.343D+00 0.663D+00
 Coeff:     -0.603D-02 0.343D+00 0.663D+00
 Gap=     0.250 Goal=   None    Shift=    0.000
 RMSDP=5.72D-07 MaxDP=7.00D-06 DE=-4.64D-09 OVMax= 1.12D-05

 Cycle   4  Pass 1  IDiag  1:
 E= -232.248651301277     Delta-E=       -0.000000002127 Rises=F Damp=F
 DIIS: error= 2.91D-07 at cycle   4 NSaved=   4.
 NSaved= 4 IEnMin= 4 EnMin= -232.248651301277     IErMin= 4 ErrMin= 2.91D-07
 ErrMax= 2.91D-07  0.00D+00 EMaxC= 1.00D-01 BMatC= 6.24D-12 BMatP= 1.98D-09
 IDIUse=1 WtCom= 1.00D+00 WtEn= 0.00D+00
 Coeff-Com: -0.239D-02 0.131D-01 0.763D-01 0.913D+00
 Coeff:     -0.239D-02 0.131D-01 0.763D-01 0.913D+00
 Gap=     0.250 Goal=   None    Shift=    0.000
 RMSDP=3.50D-08 MaxDP=4.75D-07 DE=-2.13D-09 OVMax= 6.62D-07

 Cycle   5  Pass 1  IDiag  1:
 E= -232.248651301285     Delta-E=       -0.000000000008 Rises=F Damp=F
 DIIS: error= 3.20D-08 at cycle   5 NSaved=   5.
 NSaved= 5 IEnMin= 5 EnMin= -232.248651301285     IErMin= 5 ErrMin= 3.20D-08
 ErrMax= 3.20D-08  0.00D+00 EMaxC= 1.00D-01 BMatC= 1.68D-13 BMatP= 6.24D-12
 IDIUse=1 WtCom= 1.00D+00 WtEn= 0.00D+00
 Coeff-Com: -0.744D-03-0.127D-04 0.168D-01 0.298D+00 0.686D+00
 Coeff:     -0.744D-03-0.127D-04 0.168D-01 0.298D+00 0.686D+00
 Gap=     0.250 Goal=   None    Shift=    0.000
 RMSDP=5.12D-09 MaxDP=1.09D-07 DE=-8.01D-12 OVMax= 1.62D-07

 SCF Done:  E(RB3LYP) =  -232.248651301     A.U. after    5 cycles
            NFock=  5  Conv=0.51D-08     -V/T= 2.0101
 KE= 2.299254864936D+02 PE=-9.437042055466D+02 EE= 2.783465850510D+02
 Leave Link  502 at Thu Jul 10 10:48:49 2025, MaxMem=   104857600 cpu:               4.3 elap:               4.3
 (Enter /sw/cluster/pub/apps//g16/l701.exe)
 ... and contract with generalized density number  0.
 Compute integral first derivatives.
 Leave Link  701 at Thu Jul 10 10:48:49 2025, MaxMem=   104857600 cpu:               0.0 elap:               0.0
 (Enter /sw/cluster/pub/apps//g16/l702.exe)
 L702 exits ... SP integral derivatives will be done elsewhere.
 Leave Link  702 at Thu Jul 10 10:48:49 2025, MaxMem=   104857600 cpu:               0.0 elap:               0.0
 (Enter /sw/cluster/pub/apps//g16/l703.exe)
 Integral derivatives from FoFJK, PRISM(SPDF).
 Compute integral first derivatives, UseDBF=F ICtDFT=           0.
 Calling FoFJK, ICntrl=      2127 FMM=F ISym2X=0 I1Cent= 0 IOpClX= 0 NMat=1 NMatS=1 NMatT=0.
 FoFJK:  IHMeth= 1 ICntrl=    2127 DoSepK=F KAlg= 0 I1Cent=           0 FoldK=F
 IRaf=         0 NMat=       1 IRICut=       1 DoRegI=T DoRafI=F ISym2E= 0 IDoP0=0 IntGTp=1.
 FoFCou: FMM=F IPFlag=           0 FMFlag=      100000 FMFlg1=         800
         NFxFlg=           0 DoJE=F BraDBF=F KetDBF=F FulRan=T
         wScrn=  0.000000 ICntrl=      2127 IOpCl=  0 I1Cent=           0 NGrid=           0
         NMat0=    1 NMatS0=      1 NMatT0=    0 NMatD0=    1 NMtDS0=    0 NMtDT0=    0
 Symmetry not used in FoFCou.
 Leave Link  703 at Thu Jul 10 10:48:51 2025, MaxMem=   104857600 cpu:               2.0 elap:               2.0
 (Enter /sw/cluster/pub/apps//g16/l716.exe)
 Dipole        = 7.79252094D-08-3.41208618D-07 3.14191543D-09
 ***** Axes restored to original set *****
 -------------------------------------------------------------------
 Center     Atomic                   Forces (Hartrees/Bohr)
 Number     Number              X              Y              Z
 -------------------------------------------------------------------
      1        6           0.000007349    0.000012259   -0.000000006
      2        6          -0.000009859    0.000013106   -0.000000003
      3        6          -0.000017463   -0.000001989   -0.000000018
      4        6          -0.000007325   -0.000012247    0.000000016
      5        6           0.000009827   -0.000013102   -0.000000004
      6        6           0.000017467    0.000001948    0.000000014
      7        1           0.000002220    0.000001927   -0.000000002
      8        1          -0.000001053    0.000003272   -0.000000003
      9        1          -0.000003324    0.000000366   -0.000000002
     10        1          -0.000002216   -0.000001916    0.000000006
     11        1           0.000001051   -0.000003262    0.000000001
     12        1           0.000003325   -0.000000360    0.000000001
 -------------------------------------------------------------------
 Cartesian Forces:  Max     0.000017467 RMS     0.000006721
 Leave Link  716 at Thu Jul 10 10:48:51 2025, MaxMem=   104857600 cpu:               0.0 elap:               0.0
 (Enter /sw/cluster/pub/apps//g16/l103.exe)

 GradGradGradGradGradGradGradGradGradGradGradGradGradGradGradGradGradGrad
 Berny optimization.
 Using GEDIIS/GDIIS optimizer.
 FormGI is forming the generalized inverse of G from B-inverse, IUseBI=4.
 Internal  Forces:  Max     0.000020635 RMS     0.000006513
 Search for a local minimum.
 Step number   3 out of a maximum of   64
 All quantities printed in internal units (Hartrees-Bohrs-Radians)
 RMS Force = .65130D-05 SwitMx=.10000D-02 MixMth= 2
 Mixed Optimization -- En-DIIS/RFO-DIIS
 Swapping is turned off.
 Update second derivatives using D2CorX and points    1    2    3
 DE= -4.08D-07 DEPred=-1.76D-07 R= 2.32D+00
 Trust test= 2.32D+00 RLast= 8.97D-04 DXMaxT set to 3.00D-01
 ITU=  0  1  0
     Eigenvalues ---    0.02070   0.02070   0.02070   0.02070   0.02070
     Eigenvalues ---    0.02070   0.02070   0.02070   0.02070   0.15999
     Eigenvalues ---    0.16000   0.16000   0.16000   0.16000   0.16000
     Eigenvalues ---    0.21999   0.22000   0.22001   0.36173   0.37230
     Eigenvalues ---    0.37230   0.37230   0.37230   0.37230   0.41245
     Eigenvalues ---    0.41245   0.45380   0.45389   0.45389   0.51617
 En-DIIS/RFO-DIIS/Sim-DIIS IScMMF=       -3 using points:     3    2
 RFO step:  Lambda=-4.25360405D-09.
 NNeg= 0 NGDIIS= 2 SimSw=  2.50D-03 Rises=F DC= -4.08D-07 SmlDif=  1.00D-05
 NRisDI= 0 DoIntr=F SqrtH=F CThrHd= 10.0 CDAdj=  3.0
 RMS Error=  0.1293134863D-04 NUsed= 2 OKEnD=F EnDIS=F
 InvSVX:  RCond= 9.06D-07 Info=           0 Equed=N FErr=  9.85D-16 BErr=  9.31D-17
 DidBck=F Rises=F RFO-DIIS coefs:    0.91235    0.08765
 Iteration  1 RMS(Cart)=  0.00001966 RMS(Int)=  0.00000000
 Iteration  2 RMS(Cart)=  0.00000000 RMS(Int)=  0.00000001
 ITry= 1 IFail=0 DXMaxC= 5.29D-05 DCOld= 1.00D+10 DXMaxT= 3.00D-01 DXLimC= 3.00D+00 Rises=F
 Variable       Old X    -DE/DX   Delta X   Delta X   Delta X     New X
                                 (Linear)    (Quad)   (Total)
    R1        2.63927  -0.00002  -0.00003  -0.00001  -0.00004   2.63923
    R2        2.63927  -0.00002  -0.00003  -0.00000  -0.00003   2.63923
    R3        2.05416  -0.00000   0.00001  -0.00002  -0.00001   2.05416
    R4        2.63927  -0.00002  -0.00003  -0.00001  -0.00004   2.63924
    R5        2.05416  -0.00000   0.00001  -0.00002  -0.00001   2.05416
[...]
   D19        3.14159  -0.00000   0.00000   0.00000   0.00000   3.14159
   D20       -0.00000   0.00000   0.00000   0.00000   0.00000   0.00000
   D21       -0.00000   0.00000   0.00000   0.00000   0.00000   0.00000
   D22        3.14159   0.00000   0.00000   0.00000   0.00000   3.14159
   D23       -3.14159  -0.00000   0.00000  -0.00000  -0.00000   3.14159
   D24        0.00000  -0.00000   0.00000  -0.00000   0.00000   0.00000
         Item               Value     Threshold  Converged?
 Maximum Force            0.000003     0.000015     YES
 RMS     Force            0.000001     0.000010     YES
 Maximum Displacement     0.000012     0.000060     YES
 RMS     Displacement     0.000003     0.000040     YES
 Predicted change in Energy=-7.631142D-11
 Optimization completed.
    -- Stationary point found.
                           ----------------------------
                           !   Optimized Parameters   !
                           ! (Angstroms and Degrees)  !
 --------------------------                            --------------------------
 ! Name  Definition              Value          Derivative Info.                !
 --------------------------------------------------------------------------------
 ! R1    R(1,2)                  1.3966         -DE/DX =    0.0                 !
 ! R2    R(1,6)                  1.3966         -DE/DX =    0.0                 !
 ! R3    R(1,7)                  1.087          -DE/DX =    0.0                 !
 ! R4    R(2,3)                  1.3966         -DE/DX =    0.0                 !
 ! R5    R(2,8)                  1.087          -DE/DX =    0.0                 !
 ! R6    R(3,4)                  1.3966         -DE/DX =    0.0                 !
 ! R7    R(3,9)                  1.087          -DE/DX =    0.0                 !
 ! R8    R(4,5)                  1.3966         -DE/DX =    0.0                 !
 ! R9    R(4,10)                 1.087          -DE/DX =    0.0                 !
 ! R10   R(5,6)                  1.3966         -DE/DX =    0.0                 !
 ! R11   R(5,11)                 1.087          -DE/DX =    0.0                 !
 ! R12   R(6,12)                 1.087          -DE/DX =    0.0                 !
 ! A1    A(2,1,6)              119.9998         -DE/DX =    0.0                 !
 ! A2    A(2,1,7)              119.9999         -DE/DX =    0.0                 !
 ! A3    A(6,1,7)              120.0002         -DE/DX =    0.0                 !
 ! A4    A(1,2,3)              120.0002         -DE/DX =    0.0                 !
 ! A5    A(1,2,8)              119.9999         -DE/DX =    0.0                 !
 ! A6    A(3,2,8)              119.9999         -DE/DX =    0.0                 !
 ! A7    A(2,3,4)              120.0            -DE/DX =    0.0                 !
 ! A8    A(2,3,9)              119.9999         -DE/DX =    0.0                 !
 ! A9    A(4,3,9)              120.0001         -DE/DX =    0.0                 !
 ! A10   A(3,4,5)              119.9998         -DE/DX =    0.0                 !
 ! A11   A(3,4,10)             120.0002         -DE/DX =    0.0                 !
 ! A12   A(5,4,10)             119.9999         -DE/DX =    0.0                 !
 ! A13   A(4,5,6)              120.0002         -DE/DX =    0.0                 !
 ! A14   A(4,5,11)             119.9999         -DE/DX =    0.0                 !
 ! A15   A(6,5,11)             119.9999         -DE/DX =    0.0                 !
 ! A16   A(1,6,5)              120.0            -DE/DX =    0.0                 !
 ! A17   A(1,6,12)             120.0001         -DE/DX =    0.0                 !
 ! A18   A(5,6,12)             119.9999         -DE/DX =    0.0                 !
 ! D1    D(6,1,2,3)              0.0            -DE/DX =    0.0                 !
 ! D2    D(6,1,2,8)            180.0            -DE/DX =    0.0                 !
 ! D3    D(7,1,2,3)            180.0            -DE/DX =    0.0                 !
 ! D4    D(7,1,2,8)              0.0            -DE/DX =    0.0                 !
 ! D5    D(2,1,6,5)              0.0            -DE/DX =    0.0                 !
 ! D6    D(2,1,6,12)           180.0            -DE/DX =    0.0                 !
 ! D7    D(7,1,6,5)            180.0            -DE/DX =    0.0                 !
 ! D8    D(7,1,6,12)             0.0            -DE/DX =    0.0                 !
 ! D9    D(1,2,3,4)              0.0            -DE/DX =    0.0                 !
 ! D10   D(1,2,3,9)            180.0            -DE/DX =    0.0                 !
 ! D11   D(8,2,3,4)            180.0            -DE/DX =    0.0                 !
 ! D12   D(8,2,3,9)              0.0            -DE/DX =    0.0                 !
 ! D13   D(2,3,4,5)              0.0            -DE/DX =    0.0                 !
 ! D14   D(2,3,4,10)          -180.0            -DE/DX =    0.0                 !
 ! D15   D(9,3,4,5)            180.0            -DE/DX =    0.0                 !
 ! D16   D(9,3,4,10)             0.0            -DE/DX =    0.0                 !
 ! D17   D(3,4,5,6)              0.0            -DE/DX =    0.0                 !
 ! D18   D(3,4,5,11)           180.0            -DE/DX =    0.0                 !
 ! D19   D(10,4,5,6)           180.0            -DE/DX =    0.0                 !
 ! D20   D(10,4,5,11)            0.0            -DE/DX =    0.0                 !
 ! D21   D(4,5,6,1)              0.0            -DE/DX =    0.0                 !
 ! D22   D(4,5,6,12)           180.0            -DE/DX =    0.0                 !
 ! D23   D(11,5,6,1)           180.0            -DE/DX =    0.0                 !
 ! D24   D(11,5,6,12)            0.0            -DE/DX =    0.0                 !
 --------------------------------------------------------------------------------
 GradGradGradGradGradGradGradGradGradGradGradGradGradGradGradGradGradGrad

 Leave Link  103 at Thu Jul 10 10:49:54 2025, MaxMem=   104857600 cpu:               0.0 elap:               0.0
 (Enter /sw/cluster/pub/apps//g16/l9999.exe)

 ----------------------------------------------------------------------

 Electric dipole moment (input orientation):
 (Debye = 10**-18 statcoulomb cm , SI units = C m)
                  (au)            (Debye)         (10**-30 SI)
   Tot        0.000000D+00      0.000000D+00      0.000000D+00
   x          0.000000D+00      0.000000D+00      0.000000D+00
   y          0.000000D+00      0.000000D+00      0.000000D+00
   z          0.000000D+00      0.000000D+00      0.000000D+00

 Dipole polarizability, Alpha (input orientation).
 (esu units = cm**3 , SI units = C**2 m**2 J**-1)
 Alpha(0;0):
               (au)            (10**-24 esu)      (10**-40 SI)
   iso        0.545147D+02      0.807824D+01      0.898825D+01
   aniso      0.503288D+02      0.745795D+01      0.829809D+01
   xx         0.712905D+02      0.105642D+02      0.117542D+02
   yx         0.326249D-03      0.483451D-04      0.537912D-04
   yy         0.712914D+02      0.105643D+02      0.117544D+02
   zx         0.153720D-01      0.227789D-02      0.253450D-02
   zy        -0.323217D-01     -0.478957D-02     -0.532912D-02
   zz         0.209622D+02      0.310628D+01      0.345620D+01

 ----------------------------------------------------------------------

 Dipole orientation:
     6         -0.91938089         -0.33540115          0.16919262
     6          1.66005020         -0.72815734          0.56645163
     6          2.61065970         -0.86617732          3.02467335
     6          0.98183469         -0.61144061          5.08563953
     6         -1.59759645         -0.21868437          4.68838050
     6         -2.54820592         -0.08066441          2.23015875
     1         -1.65924691         -0.22797929         -1.74408122
     1          2.92779283         -0.92642332         -1.03762922
     1          4.61827353         -1.17186598          3.33385826
     1          1.72170071         -0.71886244          6.99891339
     1         -2.86533909         -0.02041840          6.29246138
     1         -4.55581975          0.22502421          1.92097385

 Electric dipole moment (dipole orientation):
 (Debye = 10**-18 statcoulomb cm , SI units = C m)
                  (au)            (Debye)         (10**-30 SI)
   Tot        0.000000D+00      0.000000D+00      0.000000D+00
   x          0.000000D+00      0.000000D+00      0.000000D+00
   y          0.000000D+00      0.000000D+00      0.000000D+00
   z          0.000000D+00      0.000000D+00      0.000000D+00

 Dipole polarizability, Alpha (dipole orientation).
 (esu units = cm**3 , SI units = C**2 m**2 J**-1)
 Alpha(0;0):
               (au)            (10**-24 esu)      (10**-40 SI)
   iso        0.545147D+02      0.807824D+01      0.898825D+01
   aniso      0.503288D+02      0.745795D+01      0.829809D+01
   xx         0.701434D+02      0.103942D+02      0.115651D+02
   yx        -0.751054D+01     -0.111295D+01     -0.123832D+01
   yy         0.221095D+02      0.327629D+01      0.364537D+01
   zx         0.220084D-01      0.326131D-02      0.362870D-02
   zy         0.143028D+00      0.211945D-01      0.235821D-01
   zz         0.712910D+02      0.105642D+02      0.117543D+02

 ----------------------------------------------------------------------
 1\1\GINC-N12\Freq\RB3LYP\6-31G(d)\C6H6\UNKNOWN\10-Jul-2025\0\\#P Geom=
 AllCheck Guess=TCheck SCRF=Check GenChk RB3LYP/6-31G(d) Freq\\Opt bz\\
 0,1\C,-0.4356713398,0.1563446864,0.248921109\C,0.9609491596,0.15627705
 48,0.2493477341\C,1.6593226646,1.3657522022,0.2487843113\C,0.961074141
 2,2.5752970804,0.2477942717\C,-0.4355463847,2.575364708,0.2473676261\C
 ,-1.133919873,1.3658895395,0.2479310594\H,-0.979222124,-0.7850101498,0
 .249359632\H,1.5044084147,-0.7851301461,0.2501183054\H,2.7463348047,1.
 3656951978,0.2491163633\H,1.5046249285,3.5166519271,0.2473557387\H,-0.
 9790056404,3.5167719188,0.2465970653\H,-2.2209320114,1.3659465509,0.24
 75990246\\Version=ES64L-G16RevA.03\State=1-A\HF=-232.2486501\RMSD=6.04
 1e-09\RMSF=1.452e-06\ZeroPoint=0.1007343\Thermal=0.1051206\Dipole=0.00
 00002,0.0000014,0.\DipoleDeriv=-0.0158883,0.0883965,-0.0000277,0.08835
 69,0.0861466,-0.0000996,-0.0000277,-0.0000996,-0.1110154,-0.0158828,-0
 .0883717,0.0000858,-0.0883283,0.0861723,-0.0001536,0.0000858,-0.000153
 6,-0.1110151,0.137127,-0.0000209,0.0000758,-0.0000307,-0.0669573,-0.00
 00283,0.0000758,-0.0000283,-0.1110113,-0.015888,0.0883968,-0.0000277,0
 .0883573,0.0861474,-0.0000996,-0.0000277,-0.0000996,-0.111015,-0.01588
 25,-0.0883719,0.0000858,-0.0883287,0.086173,-0.0001536,0.0000858,-0.00
 01536,-0.1110148,0.1371269,-0.0000209,0.0000758,-0.0000308,-0.0669573,
 -0.0000283,0.0000758,-0.0000283,-0.1110114,0.0107838,-0.0795263,0.0000
 205,-0.0795223,-0.0810281,0.000099,0.0000205,0.000099,0.1110144,0.0108
 003,0.0795161,-0.0000817,0.0795133,-0.0810407,0.0001476,-0.0000817,0.0
 001476,0.1110133,-0.1269401,0.0000062,-0.0000727,0.0000111,0.0567068,0
 .0000349,-0.0000727,0.0000349,0.111014,0.0107835,-0.0795264,0.0000205,
 -0.0795225,-0.0810285,0.000099,0.0000205,0.0000991,0.1110142,0.0108001
 ,0.0795162,-0.0000817,0.0795135,-0.081041,0.0001476,-0.0000817,0.00014
 76,0.1110132,-0.12694,0.0000062,-0.0000727,0.0000111,0.0567068,0.00003
 49,-0.0000727,0.0000349,0.111014\Polar=71.2904587,0.0003262,71.2913673
 ,0.015372,-0.0323217,20.9621833\Quadrupole=1.783895,1.7839144,-3.56780
 94,0.000005,0.0016346,-0.0034369\PG=C01 [X(C6H6)]\NImag=0\\0.69072506,
 0.03065084,0.72611485,0.00015115,-0.00037257,0.13140323,-0.34085873,-0
 .03338793,-0.00006409,0.69069324,0.03342325,-0.12983641,0.00005453,-0.
 03067328,0.72612901,-0.00010700,0.00003412,-0.06082895,0.00019053,-0.0
 0039130,0.13140942,-0.02667895,-0.02845220,0.00000770,-0.18259378,-0.1
 2479213,0.00004295,0.74384929,-0.07833630,0.03500931,-0.00004132,-0.05
 797943,-0.28808457,0.00012823,-0.00000282,0.67297975,0.00003974,-0.000
 02609,0.00792223,0.00000005,0.00010782,-0.06083480,0.00018706,-0.00034
 780,0.13141164,-0.05249297,0.02957399,-0.00003240,0.06582836,0.0249435
 4,0.00000167,-0.18259042,0.05796966,-0.00007442,0.69072494,0.02957400,
 -0.01835212,0.00001529,-0.02494467,-0.05749919,0.00003439,0.12478621,-
 0.28810522,0.00018407,0.03065084,0.72611487,-0.00003240,0.00001529,-0.
 00860145,0.00003371,0.00004963,0.00791524,-0.00011733,0.00016366,-0.06
 083629,0.00015116,-0.00037257,0.13140339,0.06582836,-0.02494470,0.0000
 3371,-0.05249356,-0.02957540,0.00000559,-0.02665614,0.07834142,-0.0000
 6087,-0.34085853,-0.03338797,-0.00006409,0.69069309,0.02494352,-0.0574
 9919,0.00004963,-0.02957542,-0.01834359,-0.00000278,0.02845320,0.03500
 103,-0.00000870,0.03342329,-0.12983653,0.00005453,-0.03067325,0.726129
 07,0.00000167,0.00003439,0.00791523,0.00000559,-0.00000278,-0.00860420
 ,-0.00002883,0.00000654,0.00792407,-0.00010700,0.00003412,-0.06082907,
 0.00019053,-0.00039130,0.13140956,-0.18259040,0.12478629,-0.00011733,-
 0.02665612,0.02845317,-0.00002883,-0.00125998,-0.00000641,0.00000225,-
 0.02667897,-0.02845223,0.00000770,-0.18259378,-0.12479208,0.00004295,0
 .74384930,0.05796978,-0.28810528,0.00016366,0.07834143,0.03500101,0.00
 000654,-0.00000645,-0.06957762,0.00003915,-0.07833630,0.03500933,-0.00
 004132,-0.05797935,-0.28808454,0.00012823,-0.00000299,0.67297976,-0.00
 007442,0.00018407,-0.06083622,-0.00006087,-0.00000870,0.00792403,0.000
 00225,0.00003916,-0.00860518,0.00003974,-0.00002609,0.00792227,0.00000
 005,0.00010783,-0.06083484,0.00018706,-0.00034780,0.13141161,-0.129924
 64,-0.12002629,0.00004829,-0.01074246,-0.02979122,0.00001512,-0.005658
 59,0.00182513,-0.00000505,-0.00082909,0.00092769,-0.00000078,-0.001207
 84,0.00297815,-0.00000443,0.01214342,0.01517266,-0.00000677,0.13424364
 ,-0.12002587,-0.26849101,0.00011287,0.00196137,0.00370524,-0.00000024,
 0.00040935,0.00156524,0.00000365,0.00092791,0.00024182,-0.00000002,0.0
 0439483,-0.00288560,0.00000772,-0.01658155,-0.01918093,0.00000880,0.12
 986587,0.28416890,0.00004829,0.00011287,-0.03564865,-0.00000527,-0.000
 00994,0.00240274,-0.00000414,0.00000408,0.00704897,-0.00000078,-0.0000
 0002,-0.00022584,-0.00000534,0.00000729,0.00704836,0.00001362,0.000018
 50,0.00240268,-0.00005017,-0.00012649,0.02543905,-0.01073938,0.0297932
 8,-0.00002315,-0.12990714,0.12001762,-0.00010586,0.01214388,-0.0151745
 1,0.00001272,-0.00120851,-0.00297862,-0.00000061,-0.00082933,-0.000927
 42,0.00000041,-0.00565892,-0.00182514,-0.00000271,0.00108629,-0.000373
 13,0.00000177,0.13422365,-0.00196003,0.00370230,-0.00000143,0.12001785
 ,-0.26852970,0.00018621,0.01657870,-0.01918073,0.00001892,-0.00439459,
 -0.00288461,0.00000504,-0.00092823,0.00024157,-0.00000058,-0.00040839,
 0.00156546,0.00000340,0.00037303,0.00086877,-0.00000296,-0.12985706,0.
 28420984,-0.00000276,0.00000827,0.00240209,-0.00010586,0.00018621,-0.0
 3565727,-0.00000767,0.00000923,0.00240288,0.00000030,0.00000547,0.0070
 4814,0.00000041,-0.00000058,-0.00022581,-0.00000362,0.00000296,0.00704
 870,0.00000129,-0.00000318,-0.00391004,0.00011662,-0.00020584,0.025448
 45,0.00072632,-0.00327814,0.00000017,-0.01195944,0.00266591,-0.0000061
 0,-0.33781714,0.00001572,-0.00009230,-0.01195706,-0.00266421,-0.000002
 67,0.00072682,0.00327783,-0.00000404,0.00077731,0.00000001,0.00000031,
 -0.00071649,0.00017466,-0.00000044,0.00092314,-0.00027905,0.00000166,0
 .35917651,-0.00186196,-0.00482013,0.00000705,-0.02908827,0.00492270,-0
 .00001050,0.00001614,-0.06062700,0.00001604,0.02908947,0.00492048,0.00
 000727,0.00186174,-0.00482046,0.00000819,-0.00000005,-0.00136470,0.000
 00073,-0.00158624,0.00009875,-0.00000032,0.00046714,0.00103162,-0.0000
 0303,-0.00001726,0.05926401,-0.00000074,0.00000662,0.00704865,0.000014
 29,-0.00000080,0.00240253,-0.00009230,0.00001604,-0.03565947,-0.000023
 07,-0.00000243,0.00240155,-0.00000313,0.00000862,0.00704871,0.00000031
 ,0.00000073,-0.00022544,0.00000069,0.00000022,0.00035304,0.00000118,-0
 .00000326,-0.00390959,0.00010194,-0.00002172,0.02545027,-0.00082909,0.
 00092769,-0.00000078,-0.00120785,0.00297814,-0.00000443,0.01214344,0.0
 1517267,-0.00000677,-0.12992467,-0.12002623,0.00004829,-0.01074248,-0.
 02979128,0.00001512,-0.00565859,0.00182514,-0.00000505,0.00017641,-0.0
 0015204,0.00000057,0.00050620,0.00088035,-0.00000052,0.00092315,-0.000
 46708,0.00000178,0.13424368,0.00092791,0.00024182,-0.00000002,0.004394
 84,-0.00288560,0.00000772,-0.01658159,-0.01918095,0.00000880,-0.120025
 82,-0.26849099,0.00011287,0.00196137,0.00370523,-0.00000024,0.00040934
 ,0.00156524,0.00000365,-0.00015204,0.00000090,-0.00000092,-0.00088049,
 -0.00112403,0.00000068,0.00027910,0.00103195,-0.00000309,0.12986585,0.
 28416891,-0.00000078,-0.00000002,-0.00022582,-0.00000534,0.00000729,0.
 00704835,0.00001362,0.00001850,0.00240270,0.00004829,0.00011288,-0.035
 64871,-0.00000528,-0.00000994,0.00240277,-0.00000414,0.00000408,0.0070
 4896,0.00000056,-0.00000092,-0.00135371,0.00000061,0.00000122,0.000353
 03,0.00000130,-0.00000332,-0.00390963,-0.00005017,-0.00012649,0.025439
 07,-0.00120852,-0.00297862,-0.00000061,-0.00082933,-0.00092743,0.00000
 041,-0.00565892,-0.00182515,-0.00000271,-0.01073940,0.02979333,-0.0000
 2315,-0.12990716,0.12001756,-0.00010586,0.01214389,-0.01517451,0.00001
 272,0.00050620,-0.00088049,0.00000061,0.00017643,0.00015201,0.00000037
 ,-0.00071631,0.00158634,-0.00000135,0.00108628,-0.00037313,0.00000177,
 0.13422369,-0.00439459,-0.00288461,0.00000504,-0.00092823,0.00024157,-
 0.00000058,-0.00040838,0.00156546,0.00000340,-0.00196004,0.00370230,-0
 .00000143,0.12001781,-0.26852968,0.00018621,0.01657873,-0.01918075,0.0
 0001892,0.00088035,-0.00112402,0.00000122,0.00015201,0.00000090,-0.000
 00082,-0.00017459,0.00009860,0.00000011,0.00037303,0.00086877,-0.00000
 296,-0.12985705,0.28420985,0.00000030,0.00000547,0.00704812,0.00000041
 ,-0.00000058,-0.00022579,-0.00000362,0.00000296,0.00704870,-0.00000276
 ,0.00000827,0.00240212,-0.00010586,0.00018621,-0.03565732,-0.00000767,
 0.00000923,0.00240289,-0.00000052,0.00000068,0.00035303,0.00000037,-0.
 00000082,-0.00135360,-0.00000021,0.00000065,0.00035302,0.00000129,-0.0
 0000318,-0.00391004,0.00011662,-0.00020584,0.02544846,-0.01195705,-0.0
 0266421,-0.00000267,0.00072682,0.00327782,-0.00000404,0.00077731,0.,0.
 00000031,0.00072632,-0.00327814,0.00000017,-0.01195945,0.00266591,-0.0
 0000610,-0.33781715,0.00001572,-0.00009230,0.00092315,0.00027910,0.000
 00130,-0.00071630,-0.00017459,-0.00000021,-0.00008680,0.00000002,0.000
 00039,-0.00071649,0.00017466,-0.00000044,0.00092314,-0.00027905,0.0000
 0166,0.35917651,0.02908944,0.00492048,0.00000727,0.00186175,-0.0048204
 6,0.00000819,-0.00000004,-0.00136470,0.00000073,-0.00186196,-0.0048201
 2,0.00000705,-0.02908829,0.00492269,-0.00001050,0.00001618,-0.06062699
 ,0.00001604,-0.00046708,0.00103195,-0.00000332,0.00158634,0.00009860,0
 .00000065,0.00000002,0.00026419,-0.00000104,-0.00158624,0.00009875,-0.
 00000032,0.00046714,0.00103162,-0.00000303,-0.00001725,0.05926401,-0.0
 0002307,-0.00000243,0.00240154,-0.00000313,0.00000862,0.00704870,0.000
 00031,0.00000073,-0.00022544,-0.00000074,0.00000662,0.00704866,0.00001
 429,-0.00000080,0.00240254,-0.00009230,0.00001604,-0.03565946,0.000001
 78,-0.00000309,-0.00390963,-0.00000135,0.00000011,0.00035303,0.0000003
 9,-0.00000104,-0.00135365,0.00000069,0.00000022,0.00035304,0.00000118,
 -0.00000326,-0.00390959,0.00010194,-0.00002172,0.02545026\\0.00000107,
 -0.00000044,0.,-0.00000527,-0.00000113,0.,0.00000116,-0.00000267,0.,-0
 .00000097,0.00000049,0.,0.00000515,0.00000114,0.,-0.00000114,0.0000025
 1,0.,0.00000011,-0.00000028,0.,0.00000009,0.00000025,0.,-0.00000019,0.
 00000007,0.,-0.00000009,0.00000032,0.,-0.00000009,-0.00000021,0.,0.000
 00020,-0.00000005,0.\\\@


 IN THE UNIVERSE THE DIFFICULT THINGS ARE DONE AS IF THEY WERE EASY.

                                                          -- LAO-TSU
 Job cpu time:       0 days  0 hours  0 minutes 56.9 seconds.
 Elapsed time:       0 days  0 hours  0 minutes 56.9 seconds.
 File lengths (MBytes):  RWF=     19 Int=      0 D2E=      0 Chk=      3 Scr=      1
 Normal termination of Gaussian 16 at Thu Jul 10 10:49:54 2025.
