 Entering Gaussian System, Link 0=g16
 Initial command:
 /sw/cluster/pub/apps//g16/l1.exe "/data/mmaximo/40566/Gau-4074038.inp" -scrdir="/data/mmaximo/40566/"
 Entering Link 1 = /sw/cluster/pub/apps//g16/l1.exe PID=   4074039.
  
 Copyright (c) 1988,1990,1992,1993,1995,1998,2003,2009,2016,
            Gaussian, Inc.  All Rights Reserved.
  
 This is part of the Gaussian(R) 16 program.  It is based on
 the Gaussian(R) 09 system (copyright 2009, Gaussian, Inc.),
 the Gaussian(R) 03 system (copyright 2003, Gaussian, Inc.),
 the Gaussian(R) 98 system (copyright 1998, Gaussian, Inc.),
 the Gaussian(R) 94 system (copyright 1995, Gaussian, Inc.),
 the Gaussian 92(TM) system (copyright 1992, Gaussian, Inc.),
 the Gaussian 90(TM) system (copyright 1990, Gaussian, Inc.),
 the Gaussian 88(TM) system (copyright 1988, Gaussian, Inc.),
 the Gaussian 86(TM) system (copyright 1986, Carnegie Mellon
 University), and the Gaussian 82(TM) system (copyright 1983,
 Carnegie Mellon University). Gaussian is a federally registered
 trademark of Gaussian, Inc.
  
 This software contains proprietary and confidential information,
 including trade secrets, belonging to Gaussian, Inc.
  
 This software is provided under written license and may be
 used, copied, transmitted, or stored only in accord with that
 written license.
  
 The following legend is applicable only to US Government
 contracts under FAR:
  
                    RESTRICTED RIGHTS LEGEND
  
 Use, reproduction and disclosure by the US Government is
 subject to restrictions as set forth in subparagraphs (a)
 and (c) of the Commercial Computer Software - Restricted
 Rights clause in FAR 52.227-19.
  
 Gaussian, Inc.
 340 Quinnipiac St., Bldg. 40, Wallingford CT 06492
  
  
 ---------------------------------------------------------------
 Warning -- This program may not be used in any manner that
 competes with the business of Gaussian, Inc. or will provide
 assistance to any competitor of Gaussian, Inc.  The licensee
 of this program is prohibited from giving any competitor of
 Gaussian, Inc. access to this program.  By using this program,
 the user acknowledges that Gaussian, Inc. is engaged in the
 business of creating and licensing software in the field of
 computational chemistry and represents and warrants to the
 licensee that it is not a competitor of Gaussian, Inc. and that
 it will not use this program in any manner prohibited above.
 ---------------------------------------------------------------
  

 Cite this work as:
 Gaussian 16, Revision A.03,
 M. J. Frisch, G. W. Trucks, H. B. Schlegel, G. E. Scuseria, 
 M. A. Robb, J. R. Cheeseman, G. Scalmani, V. Barone, 
 G. A. Petersson, H. Nakatsuji, X. Li, M. Caricato, A. V. Marenich, 
 J. Bloino, B. G. Janesko, R. Gomperts, B. Mennucci, H. P. Hratchian, 
 J. V. Ortiz, A. F. Izmaylov, J. L. Sonnenberg, D. Williams-Young, 
 F. Ding, F. Lipparini, F. Egidi, J. Goings, B. Peng, A. Petrone, 
 T. Henderson, D. Ranasinghe, V. G. Zakrzewski, J. Gao, N. Rega, 
 G. Zheng, W. Liang, M. Hada, M. Ehara, K. Toyota, R. Fukuda, 
 J. Hasegawa, M. Ishida, T. Nakajima, Y. Honda, O. Kitao, H. Nakai, 
 T. Vreven, K. Throssell, J. A. Montgomery, Jr., J. E. Peralta, 
 F. Ogliaro, M. J. Bearpark, J. J. Heyd, E. N. Brothers, K. N. Kudin, 
 V. N. Staroverov, T. A. Keith, R. Kobayashi, J. Normand, 
 K. Raghavachari, A. P. Rendell, J. C. Burant, S. S. Iyengar, 
 J. Tomasi, M. Cossi, J. M. Millam, M. Klene, C. Adamo, R. Cammi, 
 J. W. Ochterski, R. L. Martin, K. Morokuma, O. Farkas, 
 J. B. Foresman, and D. J. Fox, Gaussian, Inc., Wallingford CT, 2016.
 
 ******************************************
 Gaussian 16:  ES64L-G16RevA.03 25-Dec-2016
                 7-Nov-2025 
 ******************************************
 %chk=f1.chk
 --------------------------------------
 #P B3LYP/6-31G* nosymm Density=Current
 --------------------------------------
 1/30=1,38=1,172=1/1;
 2/12=2,15=1,17=6,18=5,40=1/2;
 3/5=1,6=6,7=1,11=2,25=1,30=1,74=-5/1,2,3;
 4//1;
 5/5=2,38=5/2;
 6/7=2,8=2,9=2,10=2,22=-1,28=1/1;
 99/5=1,9=1/99;
 Leave Link    1 at Fri Nov  7 11:03:11 2025, MaxMem=           0 cpu:               0.0 elap:               0.0
 (Enter /sw/cluster/pub/apps//g16/l101.exe)
 ---------------
 Single-Point F1
 ---------------
 Symbolic Z-matrix:
 Charge =  0 Multiplicity = 1
 C                     0.00468  -0.00976   0.0399 
 C                    -0.04442  -1.53762   0.05212 
 C                     1.25515  -2.08255   0.03278 
 C                     2.22309  -0.978     0.00747 
 C                     1.51251   0.23896   0.01131 
 C                     2.19661   1.44928  -0.00993 
 C                     3.59641   1.44228  -0.03495 
 C                     4.30058   0.23374  -0.03862 
 C                     3.61916  -0.9853   -0.01755 
 H                     4.17143  -1.92176  -0.02068 
 H                     5.38719   0.24329  -0.05813 
 H                     4.13996   2.38324  -0.05169 
 H                     1.65842   2.39456  -0.00744 
 C                     1.44614  -3.46572   0.03935 
 C                     0.32743  -4.30154   0.06541 
 C                    -0.96297  -3.76206   0.08471 
 C                    -1.15407  -2.37513   0.07812 
 H                    -2.16185  -1.96617   0.09321 
 H                    -1.82418  -4.42468   0.10491 
 H                     0.46062  -5.38017   0.07078 
 H                     2.44711  -3.88965   0.02446 
 C                    -0.64101   0.58466   1.312 
 H                    -0.16733   0.18958   2.2163 
 H                    -0.54198   1.67634   1.32268 
 H                    -1.70967   0.34382   1.35207 
 C                    -0.68566   0.56537  -1.21755 
 H                    -1.75522   0.3249   -1.21604 
 H                    -0.5866    1.65668  -1.24882 
 H                    -0.24451   0.15575  -2.13179 
 
 ITRead=  0  0  0  0  0  0  0  0  0  0  0  0  0  0  0  0  0  0  0  0
 ITRead=  0  0  0  0  0  0  0  0  0
 MicOpt= -1 -1 -1 -1 -1 -1 -1 -1 -1 -1 -1 -1 -1 -1 -1 -1 -1 -1 -1 -1
 MicOpt= -1 -1 -1 -1 -1 -1 -1 -1 -1
 NAtoms=     29 NQM=       29 NQMF=       0 NMMI=      0 NMMIF=      0
                NMic=       0 NMicF=      0.
                    Isotopes and Nuclear Properties:
 (Nuclear quadrupole moments (NQMom) in fm**2, nuclear magnetic moments (NMagM)
  in nuclear magnetons)

  Atom         1           2           3           4           5           6           7           8           9          10
 IAtWgt=          12          12          12          12          12          12          12          12          12           1
 AtmWgt=  12.0000000  12.0000000  12.0000000  12.0000000  12.0000000  12.0000000  12.0000000  12.0000000  12.0000000   1.0078250
 NucSpn=           0           0           0           0           0           0           0           0           0           1
 AtZEff=  -0.0000000  -0.0000000  -0.0000000  -0.0000000  -0.0000000  -0.0000000  -0.0000000  -0.0000000  -0.0000000  -0.0000000
 NQMom=    0.0000000   0.0000000   0.0000000   0.0000000   0.0000000   0.0000000   0.0000000   0.0000000   0.0000000   0.0000000
 NMagM=    0.0000000   0.0000000   0.0000000   0.0000000   0.0000000   0.0000000   0.0000000   0.0000000   0.0000000   2.7928460
 AtZNuc=   6.0000000   6.0000000   6.0000000   6.0000000   6.0000000   6.0000000   6.0000000   6.0000000   6.0000000   1.0000000

  Atom        11          12          13          14          15          16          17          18          19          20
 IAtWgt=           1           1           1          12          12          12          12           1           1           1
 AtmWgt=   1.0078250   1.0078250   1.0078250  12.0000000  12.0000000  12.0000000  12.0000000   1.0078250   1.0078250   1.0078250
 NucSpn=           1           1           1           0           0           0           0           1           1           1
 AtZEff=  -0.0000000  -0.0000000  -0.0000000  -0.0000000  -0.0000000  -0.0000000  -0.0000000  -0.0000000  -0.0000000  -0.0000000
 NQMom=    0.0000000   0.0000000   0.0000000   0.0000000   0.0000000   0.0000000   0.0000000   0.0000000   0.0000000   0.0000000
 NMagM=    2.7928460   2.7928460   2.7928460   0.0000000   0.0000000   0.0000000   0.0000000   2.7928460   2.7928460   2.7928460
 AtZNuc=   1.0000000   1.0000000   1.0000000   6.0000000   6.0000000   6.0000000   6.0000000   1.0000000   1.0000000   1.0000000

  Atom        21          22          23          24          25          26          27          28          29
 IAtWgt=           1          12           1           1           1          12           1           1           1
 AtmWgt=   1.0078250  12.0000000   1.0078250   1.0078250   1.0078250  12.0000000   1.0078250   1.0078250   1.0078250
 NucSpn=           1           0           1           1           1           0           1           1           1
 AtZEff=  -0.0000000  -0.0000000  -0.0000000  -0.0000000  -0.0000000  -0.0000000  -0.0000000  -0.0000000  -0.0000000
 NQMom=    0.0000000   0.0000000   0.0000000   0.0000000   0.0000000   0.0000000   0.0000000   0.0000000   0.0000000
 NMagM=    2.7928460   0.0000000   2.7928460   2.7928460   2.7928460   0.0000000   2.7928460   2.7928460   2.7928460
 AtZNuc=   1.0000000   6.0000000   1.0000000   1.0000000   1.0000000   6.0000000   1.0000000   1.0000000   1.0000000
 Leave Link  101 at Fri Nov  7 11:03:11 2025, MaxMem=   104857600 cpu:               0.0 elap:               0.0
 (Enter /sw/cluster/pub/apps//g16/l202.exe)
                          Input orientation:                          
 ---------------------------------------------------------------------
 Center     Atomic      Atomic             Coordinates (Angstroms)
 Number     Number       Type             X           Y           Z
 ---------------------------------------------------------------------
      1          6           0        0.004675   -0.009757    0.039896
      2          6           0       -0.044423   -1.537621    0.052119
      3          6           0        1.255147   -2.082553    0.032779
      4          6           0        2.223085   -0.978003    0.007465
      5          6           0        1.512514    0.238959    0.011312
      6          6           0        2.196606    1.449284   -0.009929
      7          6           0        3.596408    1.442284   -0.034947
      8          6           0        4.300575    0.233743   -0.038624
      9          6           0        3.619162   -0.985297   -0.017553
     10          1           0        4.171435   -1.921761   -0.020677
     11          1           0        5.387194    0.243293   -0.058130
     12          1           0        4.139964    2.383239   -0.051688
     13          1           0        1.658417    2.394560   -0.007441
     14          6           0        1.446136   -3.465719    0.039353
     15          6           0        0.327427   -4.301536    0.065408
     16          6           0       -0.962970   -3.762060    0.084706
     17          6           0       -1.154071   -2.375132    0.078123
     18          1           0       -2.161849   -1.966173    0.093214
     19          1           0       -1.824180   -4.424676    0.104905
     20          1           0        0.460619   -5.380166    0.070783
     21          1           0        2.447112   -3.889652    0.024463
     22          6           0       -0.641007    0.584656    1.312001
     23          1           0       -0.167328    0.189582    2.216301
     24          1           0       -0.541982    1.676341    1.322677
     25          1           0       -1.709673    0.343820    1.352070
     26          6           0       -0.685656    0.565371   -1.217553
     27          1           0       -1.755220    0.324895   -1.216038
     28          1           0       -0.586603    1.656675   -1.248819
     29          1           0       -0.244505    0.155754   -2.131788
 ---------------------------------------------------------------------
                    Distance matrix (angstroms):
                    1          2          3          4          5
     1  C    0.000000
     2  C    1.528702   0.000000
     3  C    2.420788   1.409329   0.000000
     4  C    2.420722   2.335971   1.468869   0.000000
     5  C    1.528481   2.362616   2.335833   1.409228   0.000000
     6  C    2.633599   3.734657   3.655413   2.427494   1.390439
     7  C    3.874864   4.705642   4.232088   2.783093   2.406812
     8  C    4.303512   4.693077   3.826873   2.405497   2.788513
     9  C    3.744262   3.705640   2.606736   1.396320   2.436719
    10  H    4.584901   4.233949   2.921206   2.165072   3.426309
    11  H    5.389356   5.717191   4.742535   3.392264   3.875305
    12  H    4.778643   5.735243   5.317199   3.869867   3.391961
    13  H    2.918535   4.285471   4.495418   3.419540   2.160615
    14  C    3.744527   2.437107   1.396305   2.606415   3.705379
    15  C    4.303973   2.788848   2.405330   3.826584   4.692915
    16  C    3.875322   2.406848   2.782711   4.231771   4.705482
    17  C    2.634227   1.390475   2.427342   3.655427   3.734784
    18  H    2.919629   2.160750   3.419511   4.495718   4.286054
    19  H    4.779168   3.391962   3.869496   5.316898   5.735135
    20  H    5.389817   3.875638   3.392193   4.742292   5.717043
    21  H    4.584683   3.426450   2.164823   2.920304   4.233093
    22  C    1.545472   2.539148   3.513661   3.513793   2.539478
    23  H    2.192273   2.771646   3.457427   3.457786   2.772415
    24  H    2.187987   3.491623   4.361513   4.052273   2.829611
    25  H    2.187649   2.828913   4.051910   4.361395   3.491578
    26  C    1.545480   2.538862   3.513054   3.513324   2.539410
    27  H    2.187828   2.829137   4.051871   4.361355   3.491684
    28  H    2.188011   3.491407   4.360775   4.051435   2.829159
    29  H    2.192190   2.770740   3.456056   3.456994   2.772529
                    6          7          8          9         10
     6  C    0.000000
     7  C    1.400043   0.000000
     8  C    2.430031   1.398727   0.000000
     9  C    2.819736   2.427750   1.396720   0.000000
    10  H    3.906918   3.412867   2.159444   1.087189   0.000000
    11  H    3.411245   2.155233   1.086836   2.153373   2.483331
    12  H    2.156538   1.086798   2.155528   3.408729   4.305227
    13  H    1.087750   2.159490   3.413371   3.907436   4.994603
    14  C    4.972212   5.358888   4.673320   3.298147   3.132837
    15  C    6.047432   6.609673   6.030380   4.673312   4.521851
    16  C    6.095079   6.920075   6.609581   5.358806   5.455265
    17  C    5.085366   6.095285   6.047563   4.972379   5.345682
    18  H    5.538241   6.692647   6.827879   5.864680   6.334464
    19  H    7.119221   7.988964   7.696369   6.440054   6.498289
    20  H    7.047095   7.509339   6.802441   5.412862   5.073370
    21  H    5.344920   5.454718   4.521249   3.132211   2.616854
    22  C    3.247634   4.528298   5.134838   4.730910   5.587285
    23  H    3.482978   4.561040   5.004877   4.550599   5.318525
    24  H    3.054056   4.361674   5.233029   5.118169   6.080069
    25  H    4.282068   5.593294   6.170027   5.660292   6.450172
    26  C    3.247629   4.528091   5.134428   4.730331   5.586562
    27  H    4.282041   5.593162   6.169868   5.660119   6.449930
    28  H    3.053541   4.360852   5.231999   5.117078   6.078854
    29  H    3.483465   4.561197   5.004515   4.549715   5.317272
                   11         12         13         14         15
    11  H    0.000000
    12  H    2.476892   0.000000
    13  H    4.305148   2.481967   0.000000
    14  C    5.412782   6.440133   5.864309   0.000000
    15  C    6.802351   7.696452   6.827484   1.396703   0.000000
    16  C    7.509184   7.988945   6.692095   2.427688   1.398761
    17  C    7.047188   7.119393   5.537813   2.819922   2.430233
    18  H    7.867191   7.658409   5.798324   3.907569   3.413384
    19  H    8.591882   9.052251   7.657877   3.408645   2.155490
    20  H    7.477369   8.592033   7.866842   2.153448   1.086836
    21  H    5.072685   6.497746   6.333591   1.087149   2.159720
    22  C    6.191365   5.286987   3.209989   4.730892   5.134855
    23  H    6.002386   5.339351   3.624955   4.550120   5.004125
    24  H    6.254229   4.930436   2.669608   5.660416   6.170220
    25  H    7.236317   6.352009   4.171071   5.118100   5.233030
    26  C    6.190921   5.286823   3.210137   4.730120   5.134112
    27  H    7.236124   6.351825   4.170988   5.117953   5.232914
    28  H    6.253130   4.929650   2.669384   5.659535   6.169516
    29  H    6.001979   5.339670   3.625771   4.548317   5.002221
                   16         17         18         19         20
    16  C    0.000000
    17  C    1.400047   0.000000
    18  H    2.159304   1.087700   0.000000
    19  H    1.086808   2.156477   2.481611   0.000000
    20  H    2.155242   3.411379   4.305019   2.476779   0.000000
    21  H    3.413000   3.907067   4.994699   4.305422   2.483935
    22  C    4.528118   3.247466   3.210161   5.286812   6.191389
    23  H    4.559848   3.481842   3.623933   5.338027   6.001638
    24  H    5.593390   4.282289   4.171745   6.352118   7.236487
    25  H    4.361425   3.053577   2.669316   4.930222   6.254269
    26  C    4.527631   3.247268   3.210291   5.286369   6.190571
    27  H    4.361513   3.053912   2.669921   4.930322   6.254084
    28  H    5.593088   4.282320   4.172227   6.351928   7.235686
    29  H    4.558323   3.480862   3.623454   5.336526   5.999577
                   21         22         23         24         25
    21  H    0.000000
    22  C    5.586919   0.000000
    23  H    5.317857   1.094630   0.000000
    24  H    6.449831   1.096219   1.774650   0.000000
    25  H    6.079777   1.096200   1.774687   1.771998   0.000000
    26  C    5.586060   2.530022   3.493027   2.776268   2.775006
    27  H    6.079543   2.774874   3.784265   3.121446   2.568582
    28  H    6.448753   2.776686   3.786187   2.571958   3.122419
    29  H    5.315969   3.492972   4.348905   3.786028   3.784092
                   26         27         28         29
    26  C    0.000000
    27  H    1.096266   0.000000
    28  H    1.096236   1.772111   0.000000
    29  H    1.094635   1.774674   1.774663   0.000000
 Symmetry turned off by external request.
 Stoichiometry    C15H14
 Framework group  C1[X(C15H14)]
 Deg. of freedom    81
 Full point group                 C1      NOp   1
 Rotational constants (GHZ):           1.0556965           0.5493218           0.3919087
 Leave Link  202 at Fri Nov  7 11:03:11 2025, MaxMem=   104857600 cpu:               0.0 elap:               0.0
 (Enter /sw/cluster/pub/apps//g16/l301.exe)
 Standard basis: 6-31G(d) (6D, 7F)
 Ernie: Thresh=  0.10000D-02 Tol=  0.10000D-05 Strict=F.
   253 basis functions,   476 primitive gaussians,   253 cartesian basis functions
    52 alpha electrons       52 beta electrons
       nuclear repulsion energy       926.0282672228 Hartrees.
 IExCor=  402 DFT=T Ex+Corr=B3LYP ExCW=0 ScaHFX=  0.200000
 ScaDFX=  0.800000  0.720000  1.000000  0.810000 ScalE2=  1.000000  1.000000
 IRadAn=      5 IRanWt=     -1 IRanGd=            0 ICorTp=0 IEmpDi=  4
 NAtoms=   29 NActive=   29 NUniq=   29 SFac= 1.00D+00 NAtFMM=   60 NAOKFM=F Big=F
 Integral buffers will be    131072 words long.
 Raffenetti 2 integral format.
 Two-electron integral symmetry is turned off.
 Leave Link  301 at Fri Nov  7 11:03:11 2025, MaxMem=   104857600 cpu:               0.0 elap:               0.0
 (Enter /sw/cluster/pub/apps//g16/l302.exe)
 NPDir=0 NMtPBC=     1 NCelOv=     1 NCel=       1 NClECP=     1 NCelD=      1
         NCelK=      1 NCelE2=     1 NClLst=     1 CellRange=     0.0.
 One-electron integrals computed using PRISM.
 NBasis=   253 RedAO= T EigKep=  3.62D-04  NBF=   253
 NBsUse=   253 1.00D-06 EigRej= -1.00D+00 NBFU=   253
 Precomputing XC quadrature grid using
 IXCGrd= 4 IRadAn=           5 IRanWt=          -1 IRanGd=           0 AccXCQ= 0.00D+00.
 Generated NRdTot=       0 NPtTot=           0 NUsed=           0 NTot=          32
 NSgBfM=   252   252   252   252   252 MxSgAt=    29 MxSgA2=    29.
 Leave Link  302 at Fri Nov  7 11:03:11 2025, MaxMem=   104857600 cpu:               0.4 elap:               0.4
 (Enter /sw/cluster/pub/apps//g16/l303.exe)
 DipDrv:  MaxL=1.
 Leave Link  303 at Fri Nov  7 11:03:11 2025, MaxMem=   104857600 cpu:               0.0 elap:               0.0
 (Enter /sw/cluster/pub/apps//g16/l401.exe)
 ExpMin= 1.61D-01 ExpMax= 3.05D+03 ExpMxC= 4.57D+02 IAcc=3 IRadAn=         5 AccDes= 0.00D+00
 Harris functional with IExCor=  402 and IRadAn=       5 diagonalized for initial guess.
 HarFok:  IExCor=  402 AccDes= 0.00D+00 IRadAn=         5 IDoV= 1 UseB2=F ITyADJ=14
 ICtDFT=  3500011 ScaDFX=  1.000000  1.000000  1.000000  1.000000
 FoFCou: FMM=F IPFlag=           0 FMFlag=      100000 FMFlg1=           0
         NFxFlg=           0 DoJE=T BraDBF=F KetDBF=T FulRan=T
         wScrn=  0.000000 ICntrl=       500 IOpCl=  0 I1Cent=   200000004 NGrid=           0
         NMat0=    1 NMatS0=      1 NMatT0=    0 NMatD0=    1 NMtDS0=    0 NMtDT0=    0
 Symmetry not used in FoFCou.
 Harris En= -580.089105915098    
 JPrj=0 DoOrth=F DoCkMO=F.
 Leave Link  401 at Fri Nov  7 11:03:15 2025, MaxMem=   104857600 cpu:               3.6 elap:               3.6
 (Enter /sw/cluster/pub/apps//g16/l502.exe)
 Two-electron integral symmetry not used.
 Closed shell SCF:
 Using DIIS extrapolation, IDIIS=  1040.
 NGot=   104857600 LenX=   104725728 LenY=   104661278
 Requested convergence on RMS density matrix=1.00D-08 within 128 cycles.
 Requested convergence on MAX density matrix=1.00D-06.
 Requested convergence on             energy=1.00D-06.
 No special actions if energy rises.
 Fock matrices will be formed incrementally for  20 cycles.
 Integral accuracy reduced to 1.0D-05 until final iterations.

 Cycle   1  Pass 0  IDiag  1:
 FoFJK:  IHMeth= 1 ICntrl=       0 DoSepK=F KAlg= 0 I1Cent=           0 FoldK=F
 IRaf= 900000000 NMat=       1 IRICut=       1 DoRegI=T DoRafI=F ISym2E= 0 IDoP0=0 IntGTp=1.
 FoFCou: FMM=F IPFlag=           0 FMFlag=      100000 FMFlg1=           0
         NFxFlg=           0 DoJE=F BraDBF=F KetDBF=F FulRan=T
         wScrn=  0.000000 ICntrl=         0 IOpCl=  0 I1Cent=           0 NGrid=           0
         NMat0=    1 NMatS0=      1 NMatT0=    0 NMatD0=    1 NMtDS0=    0 NMtDT0=    0
 Symmetry not used in FoFCou.
 E= -579.691370195543    
 DIIS: error= 4.98D-02 at cycle   1 NSaved=   1.
 NSaved= 1 IEnMin= 1 EnMin= -579.691370195543     IErMin= 1 ErrMin= 4.98D-02
 ErrMax= 4.98D-02  0.00D+00 EMaxC= 1.00D-01 BMatC= 3.23D-01 BMatP= 3.23D-01
 IDIUse=3 WtCom= 5.02D-01 WtEn= 4.98D-01
 Coeff-Com:  0.100D+01
 Coeff-En:   0.100D+01
 Coeff:      0.100D+01
 Gap=     0.184 Goal=   None    Shift=    0.000
 GapD=    0.184 DampG=1.000 DampE=0.500 DampFc=0.5000 IDamp=-1.
 Damping current iteration by 5.00D-01
 RMSDP=5.55D-03 MaxDP=1.27D-01              OVMax= 1.61D-01

 Cycle   2  Pass 0  IDiag  1:
 RMSU=  2.65D-03    CP:  9.62D-01
 E= -579.866311724057     Delta-E=       -0.174941528514 Rises=F Damp=T
 DIIS: error= 8.85D-03 at cycle   2 NSaved=   2.
 NSaved= 2 IEnMin= 2 EnMin= -579.866311724057     IErMin= 2 ErrMin= 8.85D-03
 ErrMax= 8.85D-03  0.00D+00 EMaxC= 1.00D-01 BMatC= 1.56D-02 BMatP= 3.23D-01
 IDIUse=3 WtCom= 9.11D-01 WtEn= 8.85D-02
 Coeff-Com: -0.128D-01 0.101D+01
 Coeff-En:   0.000D+00 0.100D+01
 Coeff:     -0.117D-01 0.101D+01
 Gap=     0.186 Goal=   None    Shift=    0.000
 RMSDP=1.65D-03 MaxDP=3.70D-02 DE=-1.75D-01 OVMax= 9.15D-02

 Cycle   3  Pass 0  IDiag  1:
 RMSU=  1.57D-03    CP:  9.39D-01  1.05D+00
 E= -580.048129306513     Delta-E=       -0.181817582456 Rises=F Damp=F
 DIIS: error= 3.14D-03 at cycle   3 NSaved=   3.
 NSaved= 3 IEnMin= 3 EnMin= -580.048129306513     IErMin= 3 ErrMin= 3.14D-03
 ErrMax= 3.14D-03  0.00D+00 EMaxC= 1.00D-01 BMatC= 3.01D-03 BMatP= 1.56D-02
 IDIUse=3 WtCom= 9.69D-01 WtEn= 3.14D-02
 Coeff-Com: -0.416D-01 0.267D+00 0.775D+00
 Coeff-En:   0.000D+00 0.000D+00 0.100D+01
 Coeff:     -0.403D-01 0.258D+00 0.782D+00
 Gap=     0.183 Goal=   None    Shift=    0.000
 RMSDP=4.66D-04 MaxDP=1.14D-02 DE=-1.82D-01 OVMax= 2.66D-02

 Cycle   4  Pass 0  IDiag  1:
 RMSU=  3.96D-04    CP:  9.39D-01  1.09D+00  8.59D-01
 E= -580.049149169475     Delta-E=       -0.001019862962 Rises=F Damp=F
 DIIS: error= 3.63D-03 at cycle   4 NSaved=   4.
 NSaved= 4 IEnMin= 4 EnMin= -580.049149169475     IErMin= 3 ErrMin= 3.14D-03
 ErrMax= 3.63D-03  0.00D+00 EMaxC= 1.00D-01 BMatC= 1.83D-03 BMatP= 3.01D-03
 IDIUse=3 WtCom= 9.64D-01 WtEn= 3.63D-02
 Coeff-Com: -0.234D-01 0.101D+00 0.479D+00 0.443D+00
 Coeff-En:   0.000D+00 0.000D+00 0.403D+00 0.597D+00
 Coeff:     -0.226D-01 0.978D-01 0.476D+00 0.449D+00
 Gap=     0.183 Goal=   None    Shift=    0.000
 RMSDP=2.67D-04 MaxDP=6.34D-03 DE=-1.02D-03 OVMax= 1.97D-02

 Cycle   5  Pass 0  IDiag  1:
 RMSU=  1.34D-04    CP:  9.40D-01  1.09D+00  8.74D-01  4.20D-01
 E= -580.051047352382     Delta-E=       -0.001898182906 Rises=F Damp=F
 DIIS: error= 1.06D-03 at cycle   5 NSaved=   5.
 NSaved= 5 IEnMin= 5 EnMin= -580.051047352382     IErMin= 5 ErrMin= 1.06D-03
 ErrMax= 1.06D-03  0.00D+00 EMaxC= 1.00D-01 BMatC= 1.61D-04 BMatP= 1.83D-03
 IDIUse=3 WtCom= 9.89D-01 WtEn= 1.06D-02
 Coeff-Com: -0.649D-02 0.165D-01 0.152D+00 0.262D+00 0.575D+00
 Coeff-En:   0.000D+00 0.000D+00 0.000D+00 0.681D-01 0.932D+00
 Coeff:     -0.642D-02 0.163D-01 0.151D+00 0.260D+00 0.579D+00
 Gap=     0.183 Goal=   None    Shift=    0.000
 RMSDP=6.80D-05 MaxDP=1.76D-03 DE=-1.90D-03 OVMax= 5.28D-03

 Cycle   6  Pass 0  IDiag  1:
 RMSU=  3.12D-05    CP:  9.39D-01  1.09D+00  8.78D-01  5.19D-01  6.65D-01
 E= -580.051218717836     Delta-E=       -0.000171365454 Rises=F Damp=F
 DIIS: error= 1.90D-04 at cycle   6 NSaved=   6.
 NSaved= 6 IEnMin= 6 EnMin= -580.051218717836     IErMin= 6 ErrMin= 1.90D-04
 ErrMax= 1.90D-04  0.00D+00 EMaxC= 1.00D-01 BMatC= 1.16D-05 BMatP= 1.61D-04
 IDIUse=3 WtCom= 9.98D-01 WtEn= 1.90D-03
 Coeff-Com: -0.257D-02 0.465D-02 0.639D-01 0.128D+00 0.334D+00 0.472D+00
 Coeff-En:   0.000D+00 0.000D+00 0.000D+00 0.000D+00 0.000D+00 0.100D+01
 Coeff:     -0.256D-02 0.464D-02 0.637D-01 0.128D+00 0.333D+00 0.473D+00
 Gap=     0.183 Goal=   None    Shift=    0.000
 RMSDP=1.67D-05 MaxDP=5.34D-04 DE=-1.71D-04 OVMax= 1.06D-03

 Cycle   7  Pass 0  IDiag  1:
 RMSU=  6.69D-06    CP:  9.39D-01  1.09D+00  8.81D-01  5.19D-01  6.83D-01
                    CP:  5.32D-01
 E= -580.051231050736     Delta-E=       -0.000012332900 Rises=F Damp=F
 DIIS: error= 2.55D-05 at cycle   7 NSaved=   7.
 NSaved= 7 IEnMin= 7 EnMin= -580.051231050736     IErMin= 7 ErrMin= 2.55D-05
 ErrMax= 2.55D-05  0.00D+00 EMaxC= 1.00D-01 BMatC= 2.62D-07 BMatP= 1.16D-05
 IDIUse=1 WtCom= 1.00D+00 WtEn= 0.00D+00
 Coeff-Com: -0.724D-03 0.101D-02 0.189D-01 0.410D-01 0.112D+00 0.204D+00
 Coeff-Com:  0.624D+00
 Coeff:     -0.724D-03 0.101D-02 0.189D-01 0.410D-01 0.112D+00 0.204D+00
 Coeff:      0.624D+00
 Gap=     0.183 Goal=   None    Shift=    0.000
 RMSDP=3.79D-06 MaxDP=8.30D-05 DE=-1.23D-05 OVMax= 1.70D-04

 Initial convergence to 1.0D-05 achieved.  Increase integral accuracy.
 Cycle   8  Pass 1  IDiag  1:
 E= -580.051240732321     Delta-E=       -0.000009681585 Rises=F Damp=F
 DIIS: error= 7.41D-05 at cycle   1 NSaved=   1.
 NSaved= 1 IEnMin= 1 EnMin= -580.051240732321     IErMin= 1 ErrMin= 7.41D-05
 ErrMax= 7.41D-05  0.00D+00 EMaxC= 1.00D-01 BMatC= 2.98D-07 BMatP= 2.98D-07
 IDIUse=1 WtCom= 1.00D+00 WtEn= 0.00D+00
 Coeff-Com:  0.100D+01
 Coeff:      0.100D+01
 Gap=     0.183 Goal=   None    Shift=    0.000
 RMSDP=3.79D-06 MaxDP=8.30D-05 DE=-9.68D-06 OVMax= 1.48D-04

 Cycle   9  Pass 1  IDiag  1:
 RMSU=  3.04D-05    CP:  1.00D+00
 E= -580.051240785765     Delta-E=       -0.000000053445 Rises=F Damp=F
 DIIS: error= 2.81D-05 at cycle   2 NSaved=   2.
 NSaved= 2 IEnMin= 2 EnMin= -580.051240785765     IErMin= 2 ErrMin= 2.81D-05
 ErrMax= 2.81D-05  0.00D+00 EMaxC= 1.00D-01 BMatC= 1.55D-07 BMatP= 2.98D-07
 IDIUse=1 WtCom= 1.00D+00 WtEn= 0.00D+00
 Coeff-Com:  0.385D+00 0.615D+00
 Coeff:      0.385D+00 0.615D+00
 Gap=     0.183 Goal=   None    Shift=    0.000
 RMSDP=3.50D-06 MaxDP=9.47D-05 DE=-5.34D-08 OVMax= 2.02D-04

 Cycle  10  Pass 1  IDiag  1:
 RMSU=  3.49D-06    CP:  1.00D+00  1.00D+00
 E= -580.051240829358     Delta-E=       -0.000000043593 Rises=F Damp=F
 DIIS: error= 2.89D-05 at cycle   3 NSaved=   3.
 NSaved= 3 IEnMin= 3 EnMin= -580.051240829358     IErMin= 2 ErrMin= 2.81D-05
 ErrMax= 2.89D-05  0.00D+00 EMaxC= 1.00D-01 BMatC= 1.09D-07 BMatP= 1.55D-07
 IDIUse=1 WtCom= 1.00D+00 WtEn= 0.00D+00
 Coeff-Com:  0.281D-01 0.450D+00 0.522D+00
 Coeff:      0.281D-01 0.450D+00 0.522D+00
 Gap=     0.183 Goal=   None    Shift=    0.000
 RMSDP=1.79D-06 MaxDP=4.61D-05 DE=-4.36D-08 OVMax= 1.18D-04

 Cycle  11  Pass 1  IDiag  1:
 RMSU=  5.89D-07    CP:  1.00D+00  1.01D+00  5.18D-01
 E= -580.051240939827     Delta-E=       -0.000000110470 Rises=F Damp=F
 DIIS: error= 7.34D-06 at cycle   4 NSaved=   4.
 NSaved= 4 IEnMin= 4 EnMin= -580.051240939827     IErMin= 4 ErrMin= 7.34D-06
 ErrMax= 7.34D-06  0.00D+00 EMaxC= 1.00D-01 BMatC= 7.74D-09 BMatP= 1.09D-07
 IDIUse=1 WtCom= 1.00D+00 WtEn= 0.00D+00
 Coeff-Com: -0.244D-02 0.256D+00 0.336D+00 0.410D+00
 Coeff:     -0.244D-02 0.256D+00 0.336D+00 0.410D+00
 Gap=     0.183 Goal=   None    Shift=    0.000
 RMSDP=3.92D-07 MaxDP=1.20D-05 DE=-1.10D-07 OVMax= 2.66D-05

 Cycle  12  Pass 1  IDiag  1:
 RMSU=  9.63D-08    CP:  1.00D+00  1.01D+00  5.58D-01  4.06D-01
 E= -580.051240947975     Delta-E=       -0.000000008148 Rises=F Damp=F
 DIIS: error= 4.36D-07 at cycle   5 NSaved=   5.
 NSaved= 5 IEnMin= 5 EnMin= -580.051240947975     IErMin= 5 ErrMin= 4.36D-07
 ErrMax= 4.36D-07  0.00D+00 EMaxC= 1.00D-01 BMatC= 7.31D-11 BMatP= 7.74D-09
 IDIUse=1 WtCom= 1.00D+00 WtEn= 0.00D+00
 Coeff-Com: -0.180D-02 0.135D+00 0.178D+00 0.228D+00 0.460D+00
 Coeff:     -0.180D-02 0.135D+00 0.178D+00 0.228D+00 0.460D+00
 Gap=     0.183 Goal=   None    Shift=    0.000
 RMSDP=4.34D-08 MaxDP=1.05D-06 DE=-8.15D-09 OVMax= 2.01D-06

 Cycle  13  Pass 1  IDiag  1:
 RMSU=  2.85D-08    CP:  1.00D+00  1.01D+00  5.55D-01  4.21D-01  6.87D-01
 E= -580.051240948049     Delta-E=       -0.000000000074 Rises=F Damp=F
 DIIS: error= 7.27D-08 at cycle   6 NSaved=   6.
 NSaved= 6 IEnMin= 6 EnMin= -580.051240948049     IErMin= 6 ErrMin= 7.27D-08
 ErrMax= 7.27D-08  0.00D+00 EMaxC= 1.00D-01 BMatC= 9.81D-13 BMatP= 7.31D-11
 IDIUse=1 WtCom= 1.00D+00 WtEn= 0.00D+00
 Coeff-Com: -0.395D-03 0.253D-01 0.333D-01 0.438D-01 0.148D+00 0.750D+00
 Coeff:     -0.395D-03 0.253D-01 0.333D-01 0.438D-01 0.148D+00 0.750D+00
 Gap=     0.183 Goal=   None    Shift=    0.000
 RMSDP=5.84D-09 MaxDP=1.65D-07 DE=-7.44D-11 OVMax= 3.56D-07

 SCF Done:  E(RB3LYP) =  -580.051240948     A.U. after   13 cycles
            NFock= 13  Conv=0.58D-08     -V/T= 2.0099
 KE= 5.743752241237D+02 PE=-3.194366994607D+03 EE= 1.113912262312D+03
 Leave Link  502 at Fri Nov  7 11:04:09 2025, MaxMem=   104857600 cpu:              54.6 elap:              54.7
 (Enter /sw/cluster/pub/apps//g16/l601.exe)
 Copying SCF densities to generalized density rwf, IOpCl= 0 IROHF=0.

 **********************************************************************

            Population analysis using the SCF density.

 **********************************************************************

 Alpha  occ. eigenvalues --  -10.20499 -10.18856 -10.18825 -10.18703 -10.18703
 Alpha  occ. eigenvalues --  -10.18688 -10.18688 -10.18649 -10.18649 -10.18612
 Alpha  occ. eigenvalues --  -10.18612 -10.18558 -10.18556 -10.17854 -10.17853
 Alpha  occ. eigenvalues --   -0.88391  -0.83822  -0.80756  -0.76935  -0.73767
 Alpha  occ. eigenvalues --   -0.72780  -0.70872  -0.68529  -0.63962  -0.61706
 Alpha  occ. eigenvalues --   -0.57957  -0.57092  -0.55318  -0.50588  -0.49135
 Alpha  occ. eigenvalues --   -0.46805  -0.44789  -0.44382  -0.43310  -0.42766
 Alpha  occ. eigenvalues --   -0.42551  -0.41367  -0.41222  -0.38984  -0.37933
 Alpha  occ. eigenvalues --   -0.37856  -0.37056  -0.34649  -0.34334  -0.34060
 Alpha  occ. eigenvalues --   -0.33676  -0.31588  -0.31500  -0.27710  -0.24429
 Alpha  occ. eigenvalues --   -0.24040  -0.21062
 Alpha virt. eigenvalues --   -0.02730  -0.00530   0.01246   0.04568   0.08506
 Alpha virt. eigenvalues --    0.10387   0.10509   0.13062   0.13386   0.13994
 Alpha virt. eigenvalues --    0.14922   0.16475   0.16549   0.16774   0.17884
 Alpha virt. eigenvalues --    0.18588   0.19350   0.20442   0.21533   0.21590
 Alpha virt. eigenvalues --    0.22916   0.24272   0.25973   0.26670   0.27613
 Alpha virt. eigenvalues --    0.27707   0.30211   0.31740   0.32479   0.37093
 Alpha virt. eigenvalues --    0.38488   0.39866   0.40636   0.47626   0.49868
 Alpha virt. eigenvalues --    0.49953   0.51394   0.51553   0.52423   0.55201
 Alpha virt. eigenvalues --    0.55557   0.55927   0.56021   0.56299   0.56662
 Alpha virt. eigenvalues --    0.58479   0.58481   0.58763   0.60494   0.60580
 Alpha virt. eigenvalues --    0.61859   0.62011   0.62883   0.63143   0.63714
 Alpha virt. eigenvalues --    0.64712   0.65950   0.66469   0.68480   0.68959
 Alpha virt. eigenvalues --    0.69590   0.75195   0.75921   0.77155   0.78475
 Alpha virt. eigenvalues --    0.79330   0.80509   0.81754   0.82764   0.83677
 Alpha virt. eigenvalues --    0.84277   0.84620   0.85032   0.86362   0.88243
 Alpha virt. eigenvalues --    0.90731   0.90826   0.91042   0.91721   0.92552
 Alpha virt. eigenvalues --    0.92560   0.95897   0.96208   0.96596   0.97191
 Alpha virt. eigenvalues --    0.98576   0.99209   0.99475   1.00920   1.03941
 Alpha virt. eigenvalues --    1.07235   1.07542   1.10931   1.11000   1.15040
 Alpha virt. eigenvalues --    1.15062   1.19072   1.22292   1.24191   1.24442
 Alpha virt. eigenvalues --    1.28011   1.28414   1.33808   1.34120   1.39383
 Alpha virt. eigenvalues --    1.41584   1.41796   1.45367   1.45423   1.46196
 Alpha virt. eigenvalues --    1.46675   1.49735   1.50287   1.50375   1.53165
 Alpha virt. eigenvalues --    1.56168   1.56940   1.60790   1.65179   1.67893
 Alpha virt. eigenvalues --    1.68601   1.73829   1.79395   1.79609   1.80687
 Alpha virt. eigenvalues --    1.80949   1.84826   1.86323   1.90199   1.90526
 Alpha virt. eigenvalues --    1.91162   1.92334   1.93048   1.95089   1.96359
 Alpha virt. eigenvalues --    2.00106   2.02052   2.04156   2.04310   2.05061
 Alpha virt. eigenvalues --    2.07363   2.08675   2.11059   2.13166   2.14832
 Alpha virt. eigenvalues --    2.19595   2.19626   2.19882   2.21954   2.23814
 Alpha virt. eigenvalues --    2.24816   2.24981   2.26959   2.26980   2.28865
 Alpha virt. eigenvalues --    2.30480   2.32177   2.32623   2.33406   2.37192
 Alpha virt. eigenvalues --    2.43457   2.43548   2.45832   2.49681   2.55655
 Alpha virt. eigenvalues --    2.60890   2.61545   2.64676   2.65277   2.68397
 Alpha virt. eigenvalues --    2.69042   2.70473   2.70534   2.73712   2.75666
 Alpha virt. eigenvalues --    2.76814   2.82542   2.83561   2.85728   2.94167
 Alpha virt. eigenvalues --    2.95617   3.00824   3.09910   3.29036   3.35248
 Alpha virt. eigenvalues --    3.50882   4.08478   4.09900   4.10193   4.15019
 Alpha virt. eigenvalues --    4.15631   4.18898   4.23556   4.29272   4.31290
 Alpha virt. eigenvalues --    4.35885   4.42591   4.44218   4.60564   4.80786
 Alpha virt. eigenvalues --    4.82973
          Condensed to atoms (all electrons):
               1          2          3          4          5          6
     1  C    5.177652   0.316126  -0.071725  -0.071705   0.316132  -0.083663
     2  C    0.316126   4.923669   0.494825   0.006587  -0.078793   0.006822
     3  C   -0.071725   0.494825   4.918232   0.270287   0.006614   0.013850
     4  C   -0.071705   0.006587   0.270287   4.918029   0.494826  -0.030884
     5  C    0.316132  -0.078793   0.006614   0.494826   4.923439   0.479747
     6  C   -0.083663   0.006822   0.013850  -0.030884   0.479747   5.078981
     7  C    0.006421  -0.000313   0.000259  -0.041018  -0.007263   0.498516
     8  C   -0.000448  -0.000281   0.007728   0.003812  -0.039560  -0.021188
     9  C    0.015138   0.010097  -0.092906   0.474697  -0.081525  -0.061299
    10  H   -0.000223  -0.000033  -0.008838  -0.032512   0.005340   0.000496
    11  H    0.000012   0.000002  -0.000186   0.002065   0.001163   0.004257
    12  H   -0.000150   0.000003   0.000005   0.000987   0.002762  -0.039483
    13  H   -0.007414   0.000226  -0.000269   0.004743  -0.040717   0.353334
    14  C    0.015123  -0.081599   0.474786  -0.092812   0.010100  -0.000316
    15  C   -0.000448  -0.039546   0.003815   0.007731  -0.000282   0.000003
    16  C    0.006411  -0.007305  -0.040999   0.000262  -0.000313   0.000001
    17  C   -0.083616   0.479722  -0.030883   0.013842   0.006821  -0.000220
    18  H   -0.007401  -0.040721   0.004742  -0.000269   0.000225   0.000003
    19  H   -0.000150   0.002766   0.000986   0.000005   0.000003  -0.000000
    20  H    0.000012   0.001163   0.002062  -0.000186   0.000002  -0.000000
    21  H   -0.000223   0.005342  -0.032505  -0.008856  -0.000032   0.000004
    22  C    0.351361  -0.044234   0.000090   0.000097  -0.044188  -0.002173
    23  H   -0.029629  -0.002125   0.000991   0.000994  -0.002117   0.000272
    24  H   -0.026734   0.004808   0.000090  -0.000334  -0.008694   0.003200
    25  H   -0.026730  -0.008702  -0.000334   0.000090   0.004808  -0.000048
    26  C    0.351383  -0.044268   0.000073   0.000092  -0.044194  -0.002180
    27  H   -0.026723  -0.008694  -0.000333   0.000090   0.004808  -0.000048
    28  H   -0.026739   0.004811   0.000091  -0.000334  -0.008700   0.003204
    29  H   -0.029640  -0.002126   0.000994   0.000998  -0.002116   0.000270
               7          8          9         10         11         12
     1  C    0.006421  -0.000448   0.015138  -0.000223   0.000012  -0.000150
     2  C   -0.000313  -0.000281   0.010097  -0.000033   0.000002   0.000003
     3  C    0.000259   0.007728  -0.092906  -0.008838  -0.000186   0.000005
     4  C   -0.041018   0.003812   0.474697  -0.032512   0.002065   0.000987
     5  C   -0.007263  -0.039560  -0.081525   0.005340   0.001163   0.002762
     6  C    0.498516  -0.021188  -0.061299   0.000496   0.004257  -0.039483
     7  C    4.888329   0.539741  -0.027169   0.004288  -0.040302   0.357360
     8  C    0.539741   4.880364   0.493419  -0.047838   0.357033  -0.041085
     9  C   -0.027169   0.493419   5.158761   0.347517  -0.038411   0.004457
    10  H    0.004288  -0.047838   0.347517   0.603172  -0.004749  -0.000179
    11  H   -0.040302   0.357033  -0.038411  -0.004749   0.597471  -0.005214
    12  H    0.357360  -0.041085   0.004457  -0.000179  -0.005214   0.599186
    13  H   -0.046581   0.004446   0.000619   0.000021  -0.000181  -0.004897
    14  C    0.000026   0.000100  -0.013577   0.002838  -0.000000  -0.000000
    15  C   -0.000000   0.000000   0.000100  -0.000015  -0.000000   0.000000
    16  C    0.000000  -0.000000   0.000026   0.000000  -0.000000   0.000000
    17  C    0.000001   0.000003  -0.000315   0.000004  -0.000000  -0.000000
    18  H   -0.000000  -0.000000   0.000001   0.000000   0.000000  -0.000000
    19  H    0.000000   0.000000  -0.000000  -0.000000  -0.000000  -0.000000
    20  H   -0.000000  -0.000000  -0.000000   0.000001   0.000000  -0.000000
    21  H    0.000000  -0.000015   0.002844   0.002704   0.000001  -0.000000
    22  C   -0.000013   0.000023  -0.000222   0.000003   0.000000   0.000001
    23  H   -0.000023  -0.000010  -0.000041   0.000001  -0.000000   0.000000
    24  H    0.000010   0.000000  -0.000002   0.000000  -0.000000   0.000002
    25  H    0.000002  -0.000000   0.000006  -0.000000  -0.000000  -0.000000
    26  C   -0.000013   0.000023  -0.000222   0.000003   0.000000   0.000001
    27  H    0.000002  -0.000000   0.000006  -0.000000  -0.000000  -0.000000
    28  H    0.000010   0.000000  -0.000002   0.000000  -0.000000   0.000002
    29  H   -0.000023  -0.000010  -0.000041   0.000001  -0.000000   0.000000
              13         14         15         16         17         18
     1  C   -0.007414   0.015123  -0.000448   0.006411  -0.083616  -0.007401
     2  C    0.000226  -0.081599  -0.039546  -0.007305   0.479722  -0.040721
     3  C   -0.000269   0.474786   0.003815  -0.040999  -0.030883   0.004742
     4  C    0.004743  -0.092812   0.007731   0.000262   0.013842  -0.000269
     5  C   -0.040717   0.010100  -0.000282  -0.000313   0.006821   0.000225
     6  C    0.353334  -0.000316   0.000003   0.000001  -0.000220   0.000003
     7  C   -0.046581   0.000026  -0.000000   0.000000   0.000001  -0.000000
     8  C    0.004446   0.000100   0.000000  -0.000000   0.000003  -0.000000
     9  C    0.000619  -0.013577   0.000100   0.000026  -0.000315   0.000001
    10  H    0.000021   0.002838  -0.000015   0.000000   0.000004   0.000000
    11  H   -0.000181  -0.000000  -0.000000  -0.000000  -0.000000   0.000000
    12  H   -0.004897  -0.000000   0.000000   0.000000  -0.000000  -0.000000
    13  H    0.607957   0.000001  -0.000000  -0.000000   0.000003   0.000000
    14  C    0.000001   5.158517   0.493374  -0.027216  -0.061246   0.000620
    15  C   -0.000000   0.493374   4.880458   0.539752  -0.021173   0.004447
    16  C   -0.000000  -0.027216   0.539752   4.888260   0.498576  -0.046583
    17  C    0.000003  -0.061246  -0.021173   0.498576   5.078926   0.353339
    18  H    0.000000   0.000620   0.004447  -0.046583   0.353339   0.607964
    19  H   -0.000000   0.004459  -0.041093   0.357372  -0.039493  -0.004902
    20  H    0.000000  -0.038409   0.357020  -0.040293   0.004256  -0.000181
    21  H    0.000000   0.347520  -0.047830   0.004286   0.000495   0.000021
    22  C    0.000854  -0.000222   0.000023  -0.000013  -0.002167   0.000852
    23  H    0.000044  -0.000041  -0.000010  -0.000023   0.000275   0.000045
    24  H    0.001755   0.000006  -0.000000   0.000002  -0.000048  -0.000078
    25  H   -0.000078  -0.000002   0.000000   0.000010   0.003201   0.001754
    26  C    0.000852  -0.000222   0.000023  -0.000013  -0.002167   0.000851
    27  H   -0.000078  -0.000002   0.000000   0.000010   0.003198   0.001750
    28  H    0.001757   0.000006  -0.000000   0.000002  -0.000048  -0.000078
    29  H    0.000044  -0.000041  -0.000010  -0.000023   0.000276   0.000045
              19         20         21         22         23         24
     1  C   -0.000150   0.000012  -0.000223   0.351361  -0.029629  -0.026734
     2  C    0.002766   0.001163   0.005342  -0.044234  -0.002125   0.004808
     3  C    0.000986   0.002062  -0.032505   0.000090   0.000991   0.000090
     4  C    0.000005  -0.000186  -0.008856   0.000097   0.000994  -0.000334
     5  C    0.000003   0.000002  -0.000032  -0.044188  -0.002117  -0.008694
     6  C   -0.000000  -0.000000   0.000004  -0.002173   0.000272   0.003200
     7  C    0.000000  -0.000000   0.000000  -0.000013  -0.000023   0.000010
     8  C    0.000000  -0.000000  -0.000015   0.000023  -0.000010   0.000000
     9  C   -0.000000  -0.000000   0.002844  -0.000222  -0.000041  -0.000002
    10  H   -0.000000   0.000001   0.002704   0.000003   0.000001   0.000000
    11  H   -0.000000   0.000000   0.000001   0.000000  -0.000000  -0.000000
    12  H   -0.000000  -0.000000  -0.000000   0.000001   0.000000   0.000002
    13  H   -0.000000   0.000000   0.000000   0.000854   0.000044   0.001755
    14  C    0.004459  -0.038409   0.347520  -0.000222  -0.000041   0.000006
    15  C   -0.041093   0.357020  -0.047830   0.000023  -0.000010  -0.000000
    16  C    0.357372  -0.040293   0.004286  -0.000013  -0.000023   0.000002
    17  C   -0.039493   0.004256   0.000495  -0.002167   0.000275  -0.000048
    18  H   -0.004902  -0.000181   0.000021   0.000852   0.000045  -0.000078
    19  H    0.599207  -0.005216  -0.000179   0.000001   0.000000  -0.000000
    20  H   -0.005216   0.597464  -0.004742   0.000000  -0.000000  -0.000000
    21  H   -0.000179  -0.004742   0.603143   0.000003   0.000001  -0.000000
    22  C    0.000001   0.000000   0.000003   5.144730   0.369279   0.362513
    23  H    0.000000  -0.000000   0.000001   0.369279   0.556400  -0.028592
    24  H   -0.000000  -0.000000  -0.000000   0.362513  -0.028592   0.580664
    25  H    0.000002  -0.000000   0.000000   0.362512  -0.028585  -0.031232
    26  C    0.000001   0.000000   0.000003  -0.060311   0.005480  -0.003723
    27  H    0.000002  -0.000000   0.000000  -0.003753  -0.000059  -0.000198
    28  H   -0.000000  -0.000000  -0.000000  -0.003717  -0.000061   0.003123
    29  H    0.000000  -0.000000   0.000001   0.005481  -0.000179  -0.000060
              25         26         27         28         29
     1  C   -0.026730   0.351383  -0.026723  -0.026739  -0.029640
     2  C   -0.008702  -0.044268  -0.008694   0.004811  -0.002126
     3  C   -0.000334   0.000073  -0.000333   0.000091   0.000994
     4  C    0.000090   0.000092   0.000090  -0.000334   0.000998
     5  C    0.004808  -0.044194   0.004808  -0.008700  -0.002116
     6  C   -0.000048  -0.002180  -0.000048   0.003204   0.000270
     7  C    0.000002  -0.000013   0.000002   0.000010  -0.000023
     8  C   -0.000000   0.000023  -0.000000   0.000000  -0.000010
     9  C    0.000006  -0.000222   0.000006  -0.000002  -0.000041
    10  H   -0.000000   0.000003  -0.000000   0.000000   0.000001
    11  H   -0.000000   0.000000  -0.000000  -0.000000  -0.000000
    12  H   -0.000000   0.000001  -0.000000   0.000002   0.000000
    13  H   -0.000078   0.000852  -0.000078   0.001757   0.000044
    14  C   -0.000002  -0.000222  -0.000002   0.000006  -0.000041
    15  C    0.000000   0.000023   0.000000  -0.000000  -0.000010
    16  C    0.000010  -0.000013   0.000010   0.000002  -0.000023
    17  C    0.003201  -0.002167   0.003198  -0.000048   0.000276
    18  H    0.001754   0.000851   0.001750  -0.000078   0.000045
    19  H    0.000002   0.000001   0.000002  -0.000000   0.000000
    20  H   -0.000000   0.000000  -0.000000  -0.000000  -0.000000
    21  H    0.000000   0.000003   0.000000  -0.000000   0.000001
    22  C    0.362512  -0.060311  -0.003753  -0.003717   0.005481
    23  H   -0.028585   0.005480  -0.000059  -0.000061  -0.000179
    24  H   -0.031232  -0.003723  -0.000198   0.003123  -0.000060
    25  H    0.580672  -0.003748   0.003144  -0.000199  -0.000060
    26  C   -0.003748   5.144782   0.362508   0.362498   0.369272
    27  H    0.003144   0.362508   0.580687  -0.031225  -0.028593
    28  H   -0.000199   0.362498  -0.031225   0.580666  -0.028586
    29  H   -0.000060   0.369272  -0.028593  -0.028586   0.556412
 Mulliken charges:
               1
     1  C   -0.062411
     2  C    0.101770
     3  C    0.078458
     4  C    0.078676
     5  C    0.101702
     6  C   -0.201458
     7  C   -0.132248
     8  C   -0.136256
     9  C   -0.191957
    10  H    0.127998
    11  H    0.127038
    12  H    0.126244
    13  H    0.123560
    14  C   -0.191771
    15  C   -0.136339
    16  C   -0.132190
    17  C   -0.201560
    18  H    0.123555
    19  H    0.126230
    20  H    0.127046
    21  H    0.128017
    22  C   -0.436810
    23  H    0.157713
    24  H    0.143522
    25  H    0.143515
    26  C   -0.436782
    27  H    0.143502
    28  H    0.143520
    29  H    0.157716
 Sum of Mulliken charges =  -0.00000
 Mulliken charges with hydrogens summed into heavy atoms:
               1
     1  C   -0.062411
     2  C    0.101770
     3  C    0.078458
     4  C    0.078676
     5  C    0.101702
     6  C   -0.077897
     7  C   -0.006005
     8  C   -0.009217
     9  C   -0.063959
    14  C   -0.063754
    15  C   -0.009294
    16  C   -0.005959
    17  C   -0.078005
    22  C    0.007941
    26  C    0.007956
 Electronic spatial extent (au):  <R**2>=           3672.7406
 Charge=             -0.0000 electrons
 Dipole moment (field-independent basis, Debye):
    X=             -0.3210    Y=              0.2813    Z=              0.0031  Tot=              0.4268
 Quadrupole moment (field-independent basis, Debye-Ang):
   XX=            -80.8538   YY=            -80.8202   ZZ=            -92.2848
   XY=              0.1350   XZ=             -0.2192   YZ=             -0.0744
 Traceless Quadrupole moment (field-independent basis, Debye-Ang):
   XX=              3.7992   YY=              3.8328   ZZ=             -7.6319
   XY=              0.1350   XZ=             -0.2192   YZ=             -0.0744
 Octapole moment (field-independent basis, Debye-Ang**2):
  XXX=           -252.0471  YYY=            222.9238  ZZZ=             -7.5447  XYY=            -82.7967
  XXY=             72.4853  XXZ=             -2.9006  XZZ=           -102.0442  YZZ=             89.9760
  YYZ=             -2.0650  XYZ=              0.1777
 Hexadecapole moment (field-independent basis, Debye-Ang**3):
 XXXX=          -2199.5811 YYYY=          -2215.0763 ZZZZ=           -267.6683 XXXY=            -16.7987
 XXXZ=              3.2543 YYYX=            -16.6837 YYYZ=             14.6394 ZZZX=              9.3313
 ZZZY=             20.0546 XXYY=           -735.4726 XXZZ=           -487.1801 YYZZ=           -490.8429
 XXYZ=              4.6951 YYXZ=              1.0560 ZZXY=             -8.6282
 N-N= 9.260282672228D+02 E-N=-3.194366988952D+03  KE= 5.743752241237D+02
 No NMR shielding tensors so no spin-rotation constants.
 Leave Link  601 at Fri Nov  7 11:04:10 2025, MaxMem=   104857600 cpu:               0.1 elap:               0.1
 (Enter /sw/cluster/pub/apps//g16/l9999.exe)
 1\1\GINC-N05\SP\RB3LYP\6-31G(d)\C15H14\UNKNOWN\07-Nov-2025\0\\#P B3LYP
 /6-31G* nosymm Density=Current\\Single-Point F1\\0,1\C,0,0.004675,-0.0
 09757,0.039896\C,0,-0.044423,-1.537621,0.052119\C,0,1.255147,-2.082553
 ,0.032779\C,0,2.223085,-0.978003,0.007465\C,0,1.512514,0.238959,0.0113
 12\C,0,2.196606,1.449284,-0.009929\C,0,3.596408,1.442284,-0.034947\C,0
 ,4.300575,0.233743,-0.038624\C,0,3.619162,-0.985297,-0.017553\H,0,4.17
 1435,-1.921761,-0.020677\H,0,5.387194,0.243293,-0.05813\H,0,4.139964,2
 .383239,-0.051688\H,0,1.658417,2.39456,-0.007441\C,0,1.446136,-3.46571
 9,0.039353\C,0,0.327427,-4.301536,0.065408\C,0,-0.96297,-3.76206,0.084
 706\C,0,-1.154071,-2.375132,0.078123\H,0,-2.161849,-1.966173,0.093214\
 H,0,-1.82418,-4.424676,0.104905\H,0,0.460619,-5.380166,0.070783\H,0,2.
 447112,-3.889652,0.024463\C,0,-0.641007,0.584656,1.312001\H,0,-0.16732
 8,0.189582,2.216301\H,0,-0.541982,1.676341,1.322677\H,0,-1.709673,0.34
 382,1.35207\C,0,-0.685656,0.565371,-1.217553\H,0,-1.75522,0.324895,-1.
 216038\H,0,-0.586603,1.656675,-1.248819\H,0,-0.244505,0.155754,-2.1317
 88\\Version=ES64L-G16RevA.03\HF=-580.0512409\RMSD=5.836e-09\Dipole=-0.
 1262942,0.1106772,0.0012287\Quadrupole=2.8245869,2.8495573,-5.6741442,
 0.1003898,-0.1629464,-0.0553163\PG=C01 [X(C15H14)]\\@


      TO SUSPECT YOUR OWN MORTALITY IS TO KNOW THE BEGINNING OF TERROR.
      TO LEARN IRREFUTABLY THAT YOU ARE MORTAL IS TO KNOW THE END
      OF TERROR.

                                                  -- JESSICA
                                                     CHILDREN OF DUNE
                                                     BY FRANK HERBERT
 Job cpu time:       0 days  0 hours  0 minutes 58.7 seconds.
 Elapsed time:       0 days  0 hours  0 minutes 58.8 seconds.
 File lengths (MBytes):  RWF=     40 Int=      0 D2E=      0 Chk=      6 Scr=      1
 Normal termination of Gaussian 16 at Fri Nov  7 11:04:10 2025.
