 Entering Gaussian System, Link 0=g16
 Initial command:
 /sw/cluster/pub/apps//g16/l1.exe "/data/mmaximo/40569/Gau-1030025.inp" -scrdir="/data/mmaximo/40569/"
 Entering Link 1 = /sw/cluster/pub/apps//g16/l1.exe PID=   1030026.
  
 Copyright (c) 1988,1990,1992,1993,1995,1998,2003,2009,2016,
            Gaussian, Inc.  All Rights Reserved.
  
 This is part of the Gaussian(R) 16 program.  It is based on
 the Gaussian(R) 09 system (copyright 2009, Gaussian, Inc.),
 the Gaussian(R) 03 system (copyright 2003, Gaussian, Inc.),
 the Gaussian(R) 98 system (copyright 1998, Gaussian, Inc.),
 the Gaussian(R) 94 system (copyright 1995, Gaussian, Inc.),
 the Gaussian 92(TM) system (copyright 1992, Gaussian, Inc.),
 the Gaussian 90(TM) system (copyright 1990, Gaussian, Inc.),
 the Gaussian 88(TM) system (copyright 1988, Gaussian, Inc.),
 the Gaussian 86(TM) system (copyright 1986, Carnegie Mellon
 University), and the Gaussian 82(TM) system (copyright 1983,
 Carnegie Mellon University). Gaussian is a federally registered
 trademark of Gaussian, Inc.
  
 This software contains proprietary and confidential information,
 including trade secrets, belonging to Gaussian, Inc.
  
 This software is provided under written license and may be
 used, copied, transmitted, or stored only in accord with that
 written license.
  
 The following legend is applicable only to US Government
 contracts under FAR:
  
                    RESTRICTED RIGHTS LEGEND
  
 Use, reproduction and disclosure by the US Government is
 subject to restrictions as set forth in subparagraphs (a)
 and (c) of the Commercial Computer Software - Restricted
 Rights clause in FAR 52.227-19.
  
 Gaussian, Inc.
 340 Quinnipiac St., Bldg. 40, Wallingford CT 06492
  
  
 ---------------------------------------------------------------
 Warning -- This program may not be used in any manner that
 competes with the business of Gaussian, Inc. or will provide
 assistance to any competitor of Gaussian, Inc.  The licensee
 of this program is prohibited from giving any competitor of
 Gaussian, Inc. access to this program.  By using this program,
 the user acknowledges that Gaussian, Inc. is engaged in the
 business of creating and licensing software in the field of
 computational chemistry and represents and warrants to the
 licensee that it is not a competitor of Gaussian, Inc. and that
 it will not use this program in any manner prohibited above.
 ---------------------------------------------------------------
  

 Cite this work as:
 Gaussian 16, Revision A.03,
 M. J. Frisch, G. W. Trucks, H. B. Schlegel, G. E. Scuseria, 
 M. A. Robb, J. R. Cheeseman, G. Scalmani, V. Barone, 
 G. A. Petersson, H. Nakatsuji, X. Li, M. Caricato, A. V. Marenich, 
 J. Bloino, B. G. Janesko, R. Gomperts, B. Mennucci, H. P. Hratchian, 
 J. V. Ortiz, A. F. Izmaylov, J. L. Sonnenberg, D. Williams-Young, 
 F. Ding, F. Lipparini, F. Egidi, J. Goings, B. Peng, A. Petrone, 
 T. Henderson, D. Ranasinghe, V. G. Zakrzewski, J. Gao, N. Rega, 
 G. Zheng, W. Liang, M. Hada, M. Ehara, K. Toyota, R. Fukuda, 
 J. Hasegawa, M. Ishida, T. Nakajima, Y. Honda, O. Kitao, H. Nakai, 
 T. Vreven, K. Throssell, J. A. Montgomery, Jr., J. E. Peralta, 
 F. Ogliaro, M. J. Bearpark, J. J. Heyd, E. N. Brothers, K. N. Kudin, 
 V. N. Staroverov, T. A. Keith, R. Kobayashi, J. Normand, 
 K. Raghavachari, A. P. Rendell, J. C. Burant, S. S. Iyengar, 
 J. Tomasi, M. Cossi, J. M. Millam, M. Klene, C. Adamo, R. Cammi, 
 J. W. Ochterski, R. L. Martin, K. Morokuma, O. Farkas, 
 J. B. Foresman, and D. J. Fox, Gaussian, Inc., Wallingford CT, 2016.
 
 ******************************************
 Gaussian 16:  ES64L-G16RevA.03 25-Dec-2016
                 7-Nov-2025 
 ******************************************
 %chk=f4.chk
 --------------------------------------
 #P B3LYP/6-31G* nosymm Density=Current
 --------------------------------------
 1/30=1,38=1,172=1/1;
 2/12=2,15=1,17=6,18=5,40=1/2;
 3/5=1,6=6,7=1,11=2,25=1,30=1,74=-5/1,2,3;
 4//1;
 5/5=2,38=5/2;
 6/7=2,8=2,9=2,10=2,22=-1,28=1/1;
 99/5=1,9=1/99;
 Leave Link    1 at Fri Nov  7 11:11:22 2025, MaxMem=           0 cpu:               0.0 elap:               0.0
 (Enter /sw/cluster/pub/apps//g16/l101.exe)
 ---------------
 Single-Point F4
 ---------------
 Symbolic Z-matrix:
 Charge =  0 Multiplicity = 1
 C                    -0.63334   0.37125   0.25001 
 C                     3.10508  -0.43532   4.13229 
 C                     0.82601  -0.27563   2.55127 
 H                     0.92983  -1.10266   0.57776 
 H                     1.46459   0.55472   0.6459 
 C                    -1.42029   0.09191  -2.39953 
 H                     2.89293   0.25306   2.12581 
 H                     0.4772    0.71407  -1.56322 
 H                     2.60746  -1.45842   2.29123 
 H                     0.07995  -0.96393  -1.31309 
 C                    -1.95535  -0.18826   0.77993 
 C                     2.43988  -1.1151    5.33145 
 C                    -2.34976  -1.12479  -2.39953 
 C                     0.04575  -1.49069   3.06292 
 C                    -3.69914  -0.72598  -2.42069 
 C                    -0.8694   -1.11644   4.06216 
 C                     2.30405  -0.20903   6.40322 
 C                    -2.79465   0.85692   1.21801 
 C                    -2.10699   2.13504   1.01283 
 C                     2.83479   1.09437   5.98942 
 C                    -0.7568    0.3296    4.275 
 C                    -3.75045   0.73996  -2.42242 
 C                     0.22443   0.84411   3.40254 
 C                    -2.43236   1.24019  -2.39953 
 C                     3.3005    0.98644   4.6658 
 C                    -0.84571   1.87528   0.44885 
 C                     0.01323   2.92457   0.13963 
 C                     3.91093   2.07275   4.04824 
 C                    -2.21004   2.61081  -2.48624 
 C                     0.52383   2.20235   3.42408 
 C                    -0.3914    4.23938   0.39859 
 C                     4.03176   3.27901   4.74802 
 C                    -0.15528   3.04107   4.3126 
 C                    -3.30409   3.4801   -2.54986 
 C                    -1.12914   2.5269    5.17489 
 C                    -4.61112   2.98207  -2.54331 
 C                    -1.64578   4.49512   0.9624 
 C                     3.55048   3.39025   6.05674 
 C                    -2.5117    3.44459   1.27344 
 C                     2.95304   2.2972    6.68799 
 C                    -4.84298   1.60708  -2.48611 
 C                    -1.43725   1.16628   5.16139 
 H                    -2.19204   0.7656    5.83323 
 H                    -5.85875   1.21993  -2.50031 
 H                    -3.48581   3.64855   1.71005 
 H                     2.59022   2.3854    7.70893 
 H                    -1.94894   5.5202    1.15972 
 H                     3.64959   4.33254   6.58941 
 H                    -5.45143   3.66986  -2.59219 
 H                    -1.64856   3.19165   5.86055 
 H                     0.27328   5.06608   0.16077 
 H                     4.50561   4.13373   4.27223 
 H                     0.07872   4.10159   4.33116 
 H                    -3.13433   4.55207  -2.60149 
 H                     0.9922    2.7382   -0.29834 
 H                     4.29362   1.9966    3.03247 
 H                     1.27563   2.61871   2.76333 
 H                    -1.20229   3.01446  -2.48809 
 C                     1.77778  -0.62483   7.62792 
 C                    -4.06217   0.58772   1.73703 
 C                    -4.72022  -1.67686  -2.46603 
 C                    -1.68455  -2.07097   4.67124 
 C                     1.39975  -1.9594    7.78221 
 C                    -4.49219  -0.73731   1.81243 
 C                    -4.38221  -3.03145  -2.50033 
 C                    -1.57673  -3.40575   4.27482 
 C                     1.55854  -2.86656   6.72948 
 C                    -3.66544  -1.77648   1.37325 
 C                    -3.04104  -3.42908  -2.49796 
 C                    -0.6639   -3.78129   3.28366 
 C                    -2.01832  -2.47453  -2.45104 
 C                     0.15236  -2.82152   2.67348 
 C                     2.08701  -2.44953   5.50336 
 C                    -2.3956   -1.50559   0.85514 
 H                    -0.97862  -2.79583  -2.45493 
 H                     0.85827  -3.12571   1.90258 
 H                    -1.76884  -2.32345   0.51826 
 H                     2.19991  -3.16538   4.69511 
 H                     1.26686  -3.90483   6.86199 
 H                    -4.00994  -2.80483   1.43319 
 H                    -2.79102  -4.48619  -2.53631 
 H                    -0.58854  -4.82367   2.98447 
 H                     0.98715  -2.29775   8.72923 
 H                    -5.47703  -0.96343   2.21342 
 H                    -5.16719  -3.7824   -2.53662 
 H                    -2.20642  -4.15912   4.74121 
 H                     1.67108   0.07532   8.45273 
 H                    -4.70624   1.39552   2.07516 
 H                    -5.76369  -1.37226  -2.47804 
 H                    -2.39357  -1.78469   5.44367 
 C                     4.505    -1.07391   3.90883 
 H                     5.11231  -0.99771   4.81591 
 H                     5.03982  -0.56841   3.09585 
 H                     4.41052  -2.13391   3.64686 
 C                    -0.34227   0.04768  -1.26476 
 C                     2.37543  -0.48766   2.74807 
 C                     0.67038  -0.1195    0.98951 
 C                    -0.63641   0.1144   -3.74176 
 H                     0.05676  -0.73315  -3.80305 
 H                    -0.05406   1.03814  -3.83492 
 H                    -1.32382   0.05519  -4.59108 
 
 ITRead=  0  0  0  0  0  0  0  0  0  0  0  0  0  0  0  0  0  0  0  0
 ITRead=  0  0  0  0  0  0  0  0  0  0  0  0  0  0  0  0  0  0  0  0
 ITRead=  0  0  0  0  0  0  0  0  0  0  0  0  0  0  0  0  0  0  0  0
 ITRead=  0  0  0  0  0  0  0  0  0  0  0  0  0  0  0  0  0  0  0  0
 ITRead=  0  0  0  0  0  0  0  0  0  0  0  0  0  0  0  0  0  0  0  0
 ITRead=  0
 MicOpt= -1 -1 -1 -1 -1 -1 -1 -1 -1 -1 -1 -1 -1 -1 -1 -1 -1 -1 -1 -1
 MicOpt= -1 -1 -1 -1 -1 -1 -1 -1 -1 -1 -1 -1 -1 -1 -1 -1 -1 -1 -1 -1
 MicOpt= -1 -1 -1 -1 -1 -1 -1 -1 -1 -1 -1 -1 -1 -1 -1 -1 -1 -1 -1 -1
 MicOpt= -1 -1 -1 -1 -1 -1 -1 -1 -1 -1 -1 -1 -1 -1 -1 -1 -1 -1 -1 -1
 MicOpt= -1 -1 -1 -1 -1 -1 -1 -1 -1 -1 -1 -1 -1 -1 -1 -1 -1 -1 -1 -1
 MicOpt= -1
 NAtoms=    101 NQM=      101 NQMF=       0 NMMI=      0 NMMIF=      0
                NMic=       0 NMicF=      0.
                    Isotopes and Nuclear Properties:
 (Nuclear quadrupole moments (NQMom) in fm**2, nuclear magnetic moments (NMagM)
  in nuclear magnetons)

  Atom         1           2           3           4           5           6           7           8           9          10
 IAtWgt=          12          12          12           1           1          12           1           1           1           1
 AtmWgt=  12.0000000  12.0000000  12.0000000   1.0078250   1.0078250  12.0000000   1.0078250   1.0078250   1.0078250   1.0078250
 NucSpn=           0           0           0           1           1           0           1           1           1           1
 AtZEff=  -0.0000000  -0.0000000  -0.0000000  -0.0000000  -0.0000000  -0.0000000  -0.0000000  -0.0000000  -0.0000000  -0.0000000
 NQMom=    0.0000000   0.0000000   0.0000000   0.0000000   0.0000000   0.0000000   0.0000000   0.0000000   0.0000000   0.0000000
 NMagM=    0.0000000   0.0000000   0.0000000   2.7928460   2.7928460   0.0000000   2.7928460   2.7928460   2.7928460   2.7928460
 AtZNuc=   6.0000000   6.0000000   6.0000000   1.0000000   1.0000000   6.0000000   1.0000000   1.0000000   1.0000000   1.0000000

  Atom        11          12          13          14          15          16          17          18          19          20
 IAtWgt=          12          12          12          12          12          12          12          12          12          12
 AtmWgt=  12.0000000  12.0000000  12.0000000  12.0000000  12.0000000  12.0000000  12.0000000  12.0000000  12.0000000  12.0000000
 NucSpn=           0           0           0           0           0           0           0           0           0           0
 AtZEff=  -0.0000000  -0.0000000  -0.0000000  -0.0000000  -0.0000000  -0.0000000  -0.0000000  -0.0000000  -0.0000000  -0.0000000
 NQMom=    0.0000000   0.0000000   0.0000000   0.0000000   0.0000000   0.0000000   0.0000000   0.0000000   0.0000000   0.0000000
 NMagM=    0.0000000   0.0000000   0.0000000   0.0000000   0.0000000   0.0000000   0.0000000   0.0000000   0.0000000   0.0000000
 AtZNuc=   6.0000000   6.0000000   6.0000000   6.0000000   6.0000000   6.0000000   6.0000000   6.0000000   6.0000000   6.0000000

  Atom        21          22          23          24          25          26          27          28          29          30
 IAtWgt=          12          12          12          12          12          12          12          12          12          12
 AtmWgt=  12.0000000  12.0000000  12.0000000  12.0000000  12.0000000  12.0000000  12.0000000  12.0000000  12.0000000  12.0000000
 NucSpn=           0           0           0           0           0           0           0           0           0           0
 AtZEff=  -0.0000000  -0.0000000  -0.0000000  -0.0000000  -0.0000000  -0.0000000  -0.0000000  -0.0000000  -0.0000000  -0.0000000
 NQMom=    0.0000000   0.0000000   0.0000000   0.0000000   0.0000000   0.0000000   0.0000000   0.0000000   0.0000000   0.0000000
 NMagM=    0.0000000   0.0000000   0.0000000   0.0000000   0.0000000   0.0000000   0.0000000   0.0000000   0.0000000   0.0000000
 AtZNuc=   6.0000000   6.0000000   6.0000000   6.0000000   6.0000000   6.0000000   6.0000000   6.0000000   6.0000000   6.0000000

  Atom        31          32          33          34          35          36          37          38          39          40
 IAtWgt=          12          12          12          12          12          12          12          12          12          12
 AtmWgt=  12.0000000  12.0000000  12.0000000  12.0000000  12.0000000  12.0000000  12.0000000  12.0000000  12.0000000  12.0000000
 NucSpn=           0           0           0           0           0           0           0           0           0           0
 AtZEff=  -0.0000000  -0.0000000  -0.0000000  -0.0000000  -0.0000000  -0.0000000  -0.0000000  -0.0000000  -0.0000000  -0.0000000
 NQMom=    0.0000000   0.0000000   0.0000000   0.0000000   0.0000000   0.0000000   0.0000000   0.0000000   0.0000000   0.0000000
 NMagM=    0.0000000   0.0000000   0.0000000   0.0000000   0.0000000   0.0000000   0.0000000   0.0000000   0.0000000   0.0000000
 AtZNuc=   6.0000000   6.0000000   6.0000000   6.0000000   6.0000000   6.0000000   6.0000000   6.0000000   6.0000000   6.0000000

  Atom        41          42          43          44          45          46          47          48          49          50
 IAtWgt=          12          12           1           1           1           1           1           1           1           1
 AtmWgt=  12.0000000  12.0000000   1.0078250   1.0078250   1.0078250   1.0078250   1.0078250   1.0078250   1.0078250   1.0078250
 NucSpn=           0           0           1           1           1           1           1           1           1           1
 AtZEff=  -0.0000000  -0.0000000  -0.0000000  -0.0000000  -0.0000000  -0.0000000  -0.0000000  -0.0000000  -0.0000000  -0.0000000
 NQMom=    0.0000000   0.0000000   0.0000000   0.0000000   0.0000000   0.0000000   0.0000000   0.0000000   0.0000000   0.0000000
 NMagM=    0.0000000   0.0000000   2.7928460   2.7928460   2.7928460   2.7928460   2.7928460   2.7928460   2.7928460   2.7928460
 AtZNuc=   6.0000000   6.0000000   1.0000000   1.0000000   1.0000000   1.0000000   1.0000000   1.0000000   1.0000000   1.0000000

  Atom        51          52          53          54          55          56          57          58          59          60
 IAtWgt=           1           1           1           1           1           1           1           1          12          12
 AtmWgt=   1.0078250   1.0078250   1.0078250   1.0078250   1.0078250   1.0078250   1.0078250   1.0078250  12.0000000  12.0000000
 NucSpn=           1           1           1           1           1           1           1           1           0           0
 AtZEff=  -0.0000000  -0.0000000  -0.0000000  -0.0000000  -0.0000000  -0.0000000  -0.0000000  -0.0000000  -0.0000000  -0.0000000
 NQMom=    0.0000000   0.0000000   0.0000000   0.0000000   0.0000000   0.0000000   0.0000000   0.0000000   0.0000000   0.0000000
 NMagM=    2.7928460   2.7928460   2.7928460   2.7928460   2.7928460   2.7928460   2.7928460   2.7928460   0.0000000   0.0000000
 AtZNuc=   1.0000000   1.0000000   1.0000000   1.0000000   1.0000000   1.0000000   1.0000000   1.0000000   6.0000000   6.0000000

  Atom        61          62          63          64          65          66          67          68          69          70
 IAtWgt=          12          12          12          12          12          12          12          12          12          12
 AtmWgt=  12.0000000  12.0000000  12.0000000  12.0000000  12.0000000  12.0000000  12.0000000  12.0000000  12.0000000  12.0000000
 NucSpn=           0           0           0           0           0           0           0           0           0           0
 AtZEff=  -0.0000000  -0.0000000  -0.0000000  -0.0000000  -0.0000000  -0.0000000  -0.0000000  -0.0000000  -0.0000000  -0.0000000
 NQMom=    0.0000000   0.0000000   0.0000000   0.0000000   0.0000000   0.0000000   0.0000000   0.0000000   0.0000000   0.0000000
 NMagM=    0.0000000   0.0000000   0.0000000   0.0000000   0.0000000   0.0000000   0.0000000   0.0000000   0.0000000   0.0000000
 AtZNuc=   6.0000000   6.0000000   6.0000000   6.0000000   6.0000000   6.0000000   6.0000000   6.0000000   6.0000000   6.0000000

  Atom        71          72          73          74          75          76          77          78          79          80
 IAtWgt=          12          12          12          12           1           1           1           1           1           1
 AtmWgt=  12.0000000  12.0000000  12.0000000  12.0000000   1.0078250   1.0078250   1.0078250   1.0078250   1.0078250   1.0078250
 NucSpn=           0           0           0           0           1           1           1           1           1           1
 AtZEff=  -0.0000000  -0.0000000  -0.0000000  -0.0000000  -0.0000000  -0.0000000  -0.0000000  -0.0000000  -0.0000000  -0.0000000
 NQMom=    0.0000000   0.0000000   0.0000000   0.0000000   0.0000000   0.0000000   0.0000000   0.0000000   0.0000000   0.0000000
 NMagM=    0.0000000   0.0000000   0.0000000   0.0000000   2.7928460   2.7928460   2.7928460   2.7928460   2.7928460   2.7928460
 AtZNuc=   6.0000000   6.0000000   6.0000000   6.0000000   1.0000000   1.0000000   1.0000000   1.0000000   1.0000000   1.0000000

  Atom        81          82          83          84          85          86          87          88          89          90
 IAtWgt=           1           1           1           1           1           1           1           1           1           1
 AtmWgt=   1.0078250   1.0078250   1.0078250   1.0078250   1.0078250   1.0078250   1.0078250   1.0078250   1.0078250   1.0078250
 NucSpn=           1           1           1           1           1           1           1           1           1           1
 AtZEff=  -0.0000000  -0.0000000  -0.0000000  -0.0000000  -0.0000000  -0.0000000  -0.0000000  -0.0000000  -0.0000000  -0.0000000
 NQMom=    0.0000000   0.0000000   0.0000000   0.0000000   0.0000000   0.0000000   0.0000000   0.0000000   0.0000000   0.0000000
 NMagM=    2.7928460   2.7928460   2.7928460   2.7928460   2.7928460   2.7928460   2.7928460   2.7928460   2.7928460   2.7928460
 AtZNuc=   1.0000000   1.0000000   1.0000000   1.0000000   1.0000000   1.0000000   1.0000000   1.0000000   1.0000000   1.0000000

  Atom        91          92          93          94          95          96          97          98          99         100
 IAtWgt=          12           1           1           1          12          12          12          12           1           1
 AtmWgt=  12.0000000   1.0078250   1.0078250   1.0078250  12.0000000  12.0000000  12.0000000  12.0000000   1.0078250   1.0078250
 NucSpn=           0           1           1           1           0           0           0           0           1           1
 AtZEff=  -0.0000000  -0.0000000  -0.0000000  -0.0000000  -0.0000000  -0.0000000  -0.0000000  -0.0000000  -0.0000000  -0.0000000
 NQMom=    0.0000000   0.0000000   0.0000000   0.0000000   0.0000000   0.0000000   0.0000000   0.0000000   0.0000000   0.0000000
 NMagM=    0.0000000   2.7928460   2.7928460   2.7928460   0.0000000   0.0000000   0.0000000   0.0000000   2.7928460   2.7928460
 AtZNuc=   6.0000000   1.0000000   1.0000000   1.0000000   6.0000000   6.0000000   6.0000000   6.0000000   1.0000000   1.0000000

  Atom       101
 IAtWgt=           1
 AtmWgt=   1.0078250
 NucSpn=           1
 AtZEff=  -0.0000000
 NQMom=    0.0000000
 NMagM=    2.7928460
 AtZNuc=   1.0000000
 Leave Link  101 at Fri Nov  7 11:11:22 2025, MaxMem=   104857600 cpu:               0.0 elap:               0.0
 (Enter /sw/cluster/pub/apps//g16/l202.exe)
 Symmetry turned off by external request.
 Stoichiometry    C57H44
 Framework group  C1[X(C57H44)]
 Deg. of freedom   297
 Full point group                 C1      NOp   1
                          Input orientation:                          
 ---------------------------------------------------------------------
 Center     Atomic      Atomic             Coordinates (Angstroms)
 Number     Number       Type             X           Y           Z
 ---------------------------------------------------------------------
      1          6           0       -0.633338    0.371251    0.250007
      2          6           0        3.105082   -0.435321    4.132291
      3          6           0        0.826012   -0.275631    2.551266
      4          1           0        0.929831   -1.102660    0.577757
      5          1           0        1.464590    0.554723    0.645903
      6          6           0       -1.420290    0.091913   -2.399528
      7          1           0        2.892929    0.253063    2.125805
      8          1           0        0.477201    0.714069   -1.563218
      9          1           0        2.607464   -1.458418    2.291232
     10          1           0        0.079952   -0.963934   -1.313094
     11          6           0       -1.955351   -0.188261    0.779927
     12          6           0        2.439878   -1.115105    5.331450
     13          6           0       -2.349763   -1.124787   -2.399528
     14          6           0        0.045749   -1.490689    3.062916
     15          6           0       -3.699138   -0.725977   -2.420691
     16          6           0       -0.869403   -1.116439    4.062160
     17          6           0        2.304049   -0.209034    6.403216
     18          6           0       -2.794652    0.856922    1.218007
     19          6           0       -2.106989    2.135041    1.012834
     20          6           0        2.834785    1.094375    5.989415
     21          6           0       -0.756798    0.329601    4.274996
     22          6           0       -3.750452    0.739964   -2.422417
     23          6           0        0.224435    0.844111    3.402545
     24          6           0       -2.432359    1.240189   -2.399528
     25          6           0        3.300505    0.986441    4.665804
     26          6           0       -0.845707    1.875277    0.448851
     27          6           0        0.013232    2.924574    0.139625
     28          6           0        3.910928    2.072747    4.048243
     29          6           0       -2.210036    2.610806   -2.486239
     30          6           0        0.523834    2.202351    3.424082
     31          6           0       -0.391397    4.239384    0.398590
     32          6           0        4.031759    3.279014    4.748017
     33          6           0       -0.155277    3.041066    4.312600
     34          6           0       -3.304094    3.480104   -2.549860
     35          6           0       -1.129137    2.526900    5.174890
     36          6           0       -4.611124    2.982069   -2.543314
     37          6           0       -1.645784    4.495125    0.962396
     38          6           0        3.550481    3.390254    6.056741
     39          6           0       -2.511699    3.444593    1.273442
     40          6           0        2.953045    2.297198    6.687986
     41          6           0       -4.842981    1.607075   -2.486110
     42          6           0       -1.437249    1.166277    5.161390
     43          1           0       -2.192039    0.765598    5.833234
     44          1           0       -5.858746    1.219935   -2.500311
     45          1           0       -3.485814    3.648547    1.710049
     46          1           0        2.590216    2.385396    7.708931
     47          1           0       -1.948939    5.520199    1.159721
     48          1           0        3.649594    4.332537    6.589406
     49          1           0       -5.451433    3.669858   -2.592191
     50          1           0       -1.648562    3.191647    5.860550
     51          1           0        0.273278    5.066076    0.160768
     52          1           0        4.505614    4.133725    4.272230
     53          1           0        0.078718    4.101590    4.331161
     54          1           0       -3.134331    4.552075   -2.601485
     55          1           0        0.992205    2.738202   -0.298343
     56          1           0        4.293620    1.996598    3.032473
     57          1           0        1.275630    2.618711    2.763330
     58          1           0       -1.202286    3.014459   -2.488091
     59          6           0        1.777779   -0.624825    7.627919
     60          6           0       -4.062175    0.587724    1.737026
     61          6           0       -4.720222   -1.676864   -2.466031
     62          6           0       -1.684548   -2.070966    4.671239
     63          6           0        1.399752   -1.959397    7.782212
     64          6           0       -4.492187   -0.737312    1.812431
     65          6           0       -4.382211   -3.031454   -2.500330
     66          6           0       -1.576730   -3.405747    4.274824
     67          6           0        1.558539   -2.866555    6.729479
     68          6           0       -3.665441   -1.776475    1.373245
     69          6           0       -3.041041   -3.429081   -2.497964
     70          6           0       -0.663898   -3.781292    3.283660
     71          6           0       -2.018319   -2.474526   -2.451045
     72          6           0        0.152358   -2.821521    2.673476
     73          6           0        2.087007   -2.449533    5.503357
     74          6           0       -2.395601   -1.505591    0.855138
     75          1           0       -0.978620   -2.795833   -2.454930
     76          1           0        0.858268   -3.125713    1.902578
     77          1           0       -1.768845   -2.323451    0.518259
     78          1           0        2.199906   -3.165380    4.695109
     79          1           0        1.266862   -3.904830    6.861994
     80          1           0       -4.009940   -2.804829    1.433186
     81          1           0       -2.791015   -4.486188   -2.536310
     82          1           0       -0.588539   -4.823668    2.984473
     83          1           0        0.987155   -2.297749    8.729231
     84          1           0       -5.477028   -0.963429    2.213417
     85          1           0       -5.167188   -3.782396   -2.536623
     86          1           0       -2.206417   -4.159124    4.741209
     87          1           0        1.671075    0.075325    8.452730
     88          1           0       -4.706244    1.395518    2.075164
     89          1           0       -5.763694   -1.372264   -2.478039
     90          1           0       -2.393567   -1.784694    5.443667
     91          6           0        4.505001   -1.073912    3.908831
     92          1           0        5.112306   -0.997714    4.815914
     93          1           0        5.039817   -0.568413    3.095846
     94          1           0        4.410517   -2.133907    3.646857
     95          6           0       -0.342266    0.047680   -1.264756
     96          6           0        2.375432   -0.487660    2.748072
     97          6           0        0.670376   -0.119503    0.989514
     98          6           0       -0.636414    0.114402   -3.741764
     99          1           0        0.056764   -0.733145   -3.803054
    100          1           0       -0.054056    1.038144   -3.834922
    101          1           0       -1.323824    0.055186   -4.591085
 ---------------------------------------------------------------------
 Rotational constants (GHZ):           0.0973995           0.0411962           0.0358842
 Leave Link  202 at Fri Nov  7 11:11:22 2025, MaxMem=   104857600 cpu:               0.0 elap:               0.0
 (Enter /sw/cluster/pub/apps//g16/l301.exe)
 Standard basis: 6-31G(d) (6D, 7F)
 Ernie: Thresh=  0.10000D-02 Tol=  0.10000D-05 Strict=F.
   943 basis functions,  1772 primitive gaussians,   943 cartesian basis functions
   193 alpha electrons      193 beta electrons
       nuclear repulsion energy      8077.5412826250 Hartrees.
 IExCor=  402 DFT=T Ex+Corr=B3LYP ExCW=0 ScaHFX=  0.200000
 ScaDFX=  0.800000  0.720000  1.000000  0.810000 ScalE2=  1.000000  1.000000
 IRadAn=      5 IRanWt=     -1 IRanGd=            0 ICorTp=0 IEmpDi=  4
 NAtoms=  101 NActive=  101 NUniq=  101 SFac= 1.00D+00 NAtFMM=   60 NAOKFM=T Big=T
 Integral buffers will be    131072 words long.
 Raffenetti 2 integral format.
 Two-electron integral symmetry is turned off.
 Leave Link  301 at Fri Nov  7 11:11:22 2025, MaxMem=   104857600 cpu:               0.0 elap:               0.0
 (Enter /sw/cluster/pub/apps//g16/l302.exe)
 NPDir=0 NMtPBC=     1 NCelOv=     1 NCel=       1 NClECP=     1 NCelD=      1
         NCelK=      1 NCelE2=     1 NClLst=     1 CellRange=     0.0.
 One-electron integrals computed using PRISM.
 NBasis=   943 RedAO= T EigKep=  3.39D-04  NBF=   943
 NBsUse=   943 1.00D-06 EigRej= -1.00D+00 NBFU=   943
 Precomputing XC quadrature grid using
 IXCGrd= 4 IRadAn=           5 IRanWt=          -1 IRanGd=           0 AccXCQ= 0.00D+00.
 Generated NRdTot=       0 NPtTot=           0 NUsed=           0 NTot=          32
 NSgBfM=   880   864   870   876   880 MxSgAt=   101 MxSgA2=   101.
 Leave Link  302 at Fri Nov  7 11:11:29 2025, MaxMem=   104857600 cpu:               6.4 elap:               6.4
 (Enter /sw/cluster/pub/apps//g16/l303.exe)
 DipDrv:  MaxL=1.
 Leave Link  303 at Fri Nov  7 11:11:29 2025, MaxMem=   104857600 cpu:               0.1 elap:               0.1
 (Enter /sw/cluster/pub/apps//g16/l401.exe)
 ExpMin= 1.61D-01 ExpMax= 3.05D+03 ExpMxC= 4.57D+02 IAcc=3 IRadAn=         5 AccDes= 0.00D+00
 Harris functional with IExCor=  402 and IRadAn=       5 diagonalized for initial guess.
 HarFok:  IExCor=  402 AccDes= 0.00D+00 IRadAn=         5 IDoV= 1 UseB2=F ITyADJ=14
 ICtDFT=  3500011 ScaDFX=  1.000000  1.000000  1.000000  1.000000
 FoFCou: FMM=F IPFlag=           0 FMFlag=      100000 FMFlg1=        2001
         NFxFlg=           0 DoJE=T BraDBF=F KetDBF=T FulRan=T
         wScrn=  0.000000 ICntrl=       500 IOpCl=  0 I1Cent=   200000004 NGrid=           0
         NMat0=    1 NMatS0=      1 NMatT0=    0 NMatD0=    1 NMtDS0=    0 NMtDT0=    0
 Symmetry not used in FoFCou.
 Harris En= -2198.62375727895    
 JPrj=0 DoOrth=F DoCkMO=F.
 Leave Link  401 at Fri Nov  7 11:12:06 2025, MaxMem=   104857600 cpu:              37.7 elap:              37.7
 (Enter /sw/cluster/pub/apps//g16/l502.exe)
 Two-electron integral symmetry not used.
 Closed shell SCF:
 Using DIIS extrapolation, IDIIS=  1040.
 NGot=   104857600 LenX=   103065426 LenY=   102175234
 Requested convergence on RMS density matrix=1.00D-08 within 128 cycles.
 Requested convergence on MAX density matrix=1.00D-06.
 Requested convergence on             energy=1.00D-06.
 No special actions if energy rises.
 Fock matrices will be formed incrementally for  20 cycles.
 Integral accuracy reduced to 1.0D-05 until final iterations.

 Cycle   1  Pass 0  IDiag  1:
 FoFJK:  IHMeth= 1 ICntrl=       0 DoSepK=F KAlg= 0 I1Cent=           0 FoldK=F
 IRaf= 900000000 NMat=       1 IRICut=       1 DoRegI=T DoRafI=F ISym2E= 0 IDoP0=0 IntGTp=1.
 FoFCou: FMM=T IPFlag=           0 FMFlag=      100000 FMFlg1=        2001
         NFxFlg=           0 DoJE=F BraDBF=F KetDBF=F FulRan=T
         wScrn=  0.000000 ICntrl=         0 IOpCl=  0 I1Cent=           0 NGrid=           0
         NMat0=    1 NMatS0=      1 NMatT0=    0 NMatD0=    1 NMtDS0=    0 NMtDT0=    0
 Symmetry not used in FoFCou.
 FMM levels:  10  Number of levels for PrismC:   9
 E= -2197.40837041531    
 DIIS: error= 2.63D-02 at cycle   1 NSaved=   1.
 NSaved= 1 IEnMin= 1 EnMin= -2197.40837041531     IErMin= 1 ErrMin= 2.63D-02
 ErrMax= 2.63D-02  0.00D+00 EMaxC= 1.00D-01 BMatC= 1.08D+00 BMatP= 1.08D+00
 IDIUse=3 WtCom= 7.37D-01 WtEn= 2.63D-01
 Coeff-Com:  0.100D+01
 Coeff-En:   0.100D+01
 Coeff:      0.100D+01
 Gap=     0.184 Goal=   None    Shift=    0.000
 GapD=    0.184 DampG=1.000 DampE=0.500 DampFc=0.5000 IDamp=-1.
 Damping current iteration by 5.00D-01
 RMSDP=2.93D-03 MaxDP=1.32D-01              OVMax= 1.43D-01

 Cycle   2  Pass 0  IDiag  1:
 RMSU=  1.41D-03    CP:  9.65D-01
 E= -2197.97790624140     Delta-E=       -0.569535826084 Rises=F Damp=T
 DIIS: error= 5.49D-03 at cycle   2 NSaved=   2.
 NSaved= 2 IEnMin= 2 EnMin= -2197.97790624140     IErMin= 2 ErrMin= 5.49D-03
 ErrMax= 5.49D-03  0.00D+00 EMaxC= 1.00D-01 BMatC= 6.33D-02 BMatP= 1.08D+00
 IDIUse=3 WtCom= 9.45D-01 WtEn= 5.49D-02
 Coeff-Com: -0.111D-01 0.101D+01
 Coeff-En:   0.000D+00 0.100D+01
 Coeff:     -0.105D-01 0.101D+01
 Gap=     0.196 Goal=   None    Shift=    0.000
 RMSDP=1.09D-03 MaxDP=5.54D-02 DE=-5.70D-01 OVMax= 9.01D-02

 Cycle   3  Pass 0  IDiag  1:
 RMSU=  1.04D-03    CP:  9.36D-01  9.57D-01
 E= -2198.57768217332     Delta-E=       -0.599775931925 Rises=F Damp=F
 DIIS: error= 3.47D-03 at cycle   3 NSaved=   3.
 NSaved= 3 IEnMin= 3 EnMin= -2198.57768217332     IErMin= 3 ErrMin= 3.47D-03
 ErrMax= 3.47D-03  0.00D+00 EMaxC= 1.00D-01 BMatC= 2.48D-02 BMatP= 6.33D-02
 IDIUse=3 WtCom= 9.65D-01 WtEn= 3.47D-02
 Coeff-Com: -0.516D-01 0.371D+00 0.680D+00
 Coeff-En:   0.000D+00 0.000D+00 0.100D+01
 Coeff:     -0.498D-01 0.359D+00 0.691D+00
 Gap=     0.187 Goal=   None    Shift=    0.000
 RMSDP=4.80D-04 MaxDP=1.83D-02 DE=-6.00D-01 OVMax= 5.71D-02

 Cycle   4  Pass 0  IDiag  1:
 RMSU=  3.07D-04    CP:  9.41D-01  1.05D+00  6.71D-01
 E= -2198.58101506016     Delta-E=       -0.003332886843 Rises=F Damp=F
 DIIS: error= 4.04D-03 at cycle   4 NSaved=   4.
 NSaved= 4 IEnMin= 4 EnMin= -2198.58101506016     IErMin= 3 ErrMin= 3.47D-03
 ErrMax= 4.04D-03  0.00D+00 EMaxC= 1.00D-01 BMatC= 2.21D-02 BMatP= 2.48D-02
 IDIUse=3 WtCom= 9.60D-01 WtEn= 4.04D-02
 Coeff-Com: -0.359D-01 0.161D+00 0.492D+00 0.383D+00
 Coeff-En:   0.000D+00 0.000D+00 0.472D+00 0.528D+00
 Coeff:     -0.345D-01 0.154D+00 0.491D+00 0.389D+00
 Gap=     0.177 Goal=   None    Shift=    0.000
 RMSDP=2.24D-04 MaxDP=1.15D-02 DE=-3.33D-03 OVMax= 3.55D-02

 Cycle   5  Pass 0  IDiag  1:
 RMSU=  9.47D-05    CP:  9.39D-01  1.04D+00  7.83D-01  4.66D-01
 E= -2198.60322319812     Delta-E=       -0.022208137954 Rises=F Damp=F
 DIIS: error= 1.10D-03 at cycle   5 NSaved=   5.
 NSaved= 5 IEnMin= 5 EnMin= -2198.60322319812     IErMin= 5 ErrMin= 1.10D-03
 ErrMax= 1.10D-03  0.00D+00 EMaxC= 1.00D-01 BMatC= 1.28D-03 BMatP= 2.21D-02
 IDIUse=3 WtCom= 9.89D-01 WtEn= 1.10D-02
 Coeff-Com: -0.131D-01 0.409D-01 0.195D+00 0.233D+00 0.544D+00
 Coeff-En:   0.000D+00 0.000D+00 0.000D+00 0.229D-01 0.977D+00
 Coeff:     -0.129D-01 0.405D-01 0.193D+00 0.231D+00 0.549D+00
 Gap=     0.177 Goal=   None    Shift=    0.000
 RMSDP=6.45D-05 MaxDP=4.93D-03 DE=-2.22D-02 OVMax= 9.75D-03

 Cycle   6  Pass 0  IDiag  1:
 RMSU=  4.16D-05    CP:  9.39D-01  1.04D+00  7.77D-01  5.23D-01  5.20D-01
 E= -2198.60427844372     Delta-E=       -0.001055245601 Rises=F Damp=F
 DIIS: error= 3.33D-04 at cycle   6 NSaved=   6.
 NSaved= 6 IEnMin= 6 EnMin= -2198.60427844372     IErMin= 6 ErrMin= 3.33D-04
 ErrMax= 3.33D-04  0.00D+00 EMaxC= 1.00D-01 BMatC= 2.89D-04 BMatP= 1.28D-03
 IDIUse=3 WtCom= 9.97D-01 WtEn= 3.33D-03
 Coeff-Com: -0.476D-02 0.978D-02 0.748D-01 0.110D+00 0.379D+00 0.431D+00
 Coeff-En:   0.000D+00 0.000D+00 0.000D+00 0.000D+00 0.214D+00 0.786D+00
 Coeff:     -0.474D-02 0.975D-02 0.745D-01 0.110D+00 0.378D+00 0.432D+00
 Gap=     0.177 Goal=   None    Shift=    0.000
 RMSDP=2.60D-05 MaxDP=1.88D-03 DE=-1.06D-03 OVMax= 4.23D-03

 Cycle   7  Pass 0  IDiag  1:
 RMSU=  9.18D-06    CP:  9.39D-01  1.04D+00  7.82D-01  5.22D-01  6.26D-01
                    CP:  4.82D-01
 E= -2198.60461375786     Delta-E=       -0.000335314142 Rises=F Damp=F
 DIIS: error= 8.92D-05 at cycle   7 NSaved=   7.
 NSaved= 7 IEnMin= 7 EnMin= -2198.60461375786     IErMin= 7 ErrMin= 8.92D-05
 ErrMax= 8.92D-05  0.00D+00 EMaxC= 1.00D-01 BMatC= 1.42D-05 BMatP= 2.89D-04
 IDIUse=1 WtCom= 1.00D+00 WtEn= 0.00D+00
 Coeff-Com: -0.221D-02 0.368D-02 0.354D-01 0.551D-01 0.207D+00 0.269D+00
 Coeff-Com:  0.432D+00
 Coeff:     -0.221D-02 0.368D-02 0.354D-01 0.551D-01 0.207D+00 0.269D+00
 Coeff:      0.432D+00
 Gap=     0.177 Goal=   None    Shift=    0.000
 RMSDP=5.75D-06 MaxDP=3.52D-04 DE=-3.35D-04 OVMax= 1.06D-03

 Initial convergence to 1.0D-05 achieved.  Increase integral accuracy.
 Cycle   8  Pass 1  IDiag  1:
 E= -2198.60465239096     Delta-E=       -0.000038633098 Rises=F Damp=F
 DIIS: error= 3.83D-04 at cycle   1 NSaved=   1.
 NSaved= 1 IEnMin= 1 EnMin= -2198.60465239096     IErMin= 1 ErrMin= 3.83D-04
 ErrMax= 3.83D-04  0.00D+00 EMaxC= 1.00D-01 BMatC= 6.80D-05 BMatP= 6.80D-05
 IDIUse=3 WtCom= 9.96D-01 WtEn= 3.83D-03
 Coeff-Com:  0.100D+01
 Coeff-En:   0.100D+01
 Coeff:      0.100D+01
 Gap=     0.177 Goal=   None    Shift=    0.000
 RMSDP=5.75D-06 MaxDP=3.52D-04 DE=-3.86D-05 OVMax= 1.10D-03

 Cycle   9  Pass 1  IDiag  1:
 RMSU=  1.85D-04    CP:  9.99D-01
 E= -2198.60470791083     Delta-E=       -0.000055519873 Rises=F Damp=F
 DIIS: error= 7.17D-05 at cycle   2 NSaved=   2.
 NSaved= 2 IEnMin= 2 EnMin= -2198.60470791083     IErMin= 2 ErrMin= 7.17D-05
 ErrMax= 7.17D-05  0.00D+00 EMaxC= 1.00D-01 BMatC= 6.83D-06 BMatP= 6.80D-05
 IDIUse=1 WtCom= 1.00D+00 WtEn= 0.00D+00
 Coeff-Com:  0.115D+00 0.885D+00
 Coeff:      0.115D+00 0.885D+00
 Gap=     0.177 Goal=   None    Shift=    0.000
 RMSDP=1.03D-05 MaxDP=6.36D-04 DE=-5.55D-05 OVMax= 1.86D-03

 Cycle  10  Pass 1  IDiag  1:
 RMSU=  1.02D-05    CP:  9.99D-01  1.01D+00
 E= -2198.60468348773     Delta-E=        0.000024423098 Rises=F Damp=F
 DIIS: error= 1.52D-04 at cycle   3 NSaved=   3.
 NSaved= 3 IEnMin= 2 EnMin= -2198.60470791083     IErMin= 2 ErrMin= 7.17D-05
 ErrMax= 1.52D-04  0.00D+00 EMaxC= 1.00D-01 BMatC= 2.78D-05 BMatP= 6.83D-06
 IDIUse=3 WtCom= 4.48D-01 WtEn= 5.52D-01
 Coeff-Com: -0.457D-02 0.672D+00 0.333D+00
 Coeff-En:   0.000D+00 0.739D+00 0.261D+00
 Coeff:     -0.205D-02 0.709D+00 0.293D+00
 Gap=     0.177 Goal=   None    Shift=    0.000
 RMSDP=6.02D-06 MaxDP=3.44D-04 DE= 2.44D-05 OVMax= 1.08D-03

 Cycle  11  Pass 1  IDiag  1:
 RMSU=  7.99D-07    CP:  9.99D-01  1.01D+00  4.17D-01
 E= -2198.60471519945     Delta-E=       -0.000031711712 Rises=F Damp=F
 DIIS: error= 1.77D-05 at cycle   4 NSaved=   4.
 NSaved= 4 IEnMin= 4 EnMin= -2198.60471519945     IErMin= 4 ErrMin= 1.77D-05
 ErrMax= 1.77D-05  0.00D+00 EMaxC= 1.00D-01 BMatC= 5.97D-07 BMatP= 6.83D-06
 IDIUse=1 WtCom= 1.00D+00 WtEn= 0.00D+00
 Coeff-Com: -0.405D-02 0.441D+00 0.167D+00 0.397D+00
 Coeff:     -0.405D-02 0.441D+00 0.167D+00 0.397D+00
 Gap=     0.177 Goal=   None    Shift=    0.000
 RMSDP=9.93D-07 MaxDP=7.35D-05 DE=-3.17D-05 OVMax= 1.86D-04

 Cycle  12  Pass 1  IDiag  1:
 RMSU=  2.78D-07    CP:  9.99D-01  1.01D+00  3.34D-01  4.79D-01
 E= -2198.60471588044     Delta-E=       -0.000000680991 Rises=F Damp=F
 DIIS: error= 2.55D-06 at cycle   5 NSaved=   5.
 NSaved= 5 IEnMin= 5 EnMin= -2198.60471588044     IErMin= 5 ErrMin= 2.55D-06
 ErrMax= 2.55D-06  0.00D+00 EMaxC= 1.00D-01 BMatC= 6.24D-09 BMatP= 5.97D-07
 IDIUse=1 WtCom= 1.00D+00 WtEn= 0.00D+00
 Coeff-Com: -0.239D-02 0.253D+00 0.918D-01 0.258D+00 0.399D+00
 Coeff:     -0.239D-02 0.253D+00 0.918D-01 0.258D+00 0.399D+00
 Gap=     0.177 Goal=   None    Shift=    0.000
 RMSDP=1.28D-07 MaxDP=6.59D-06 DE=-6.81D-07 OVMax= 2.10D-05

 Cycle  13  Pass 1  IDiag  1:
 RMSU=  1.04D-07    CP:  9.99D-01  1.01D+00  3.34D-01  5.29D-01  7.75D-01
 E= -2198.60471588647     Delta-E=       -0.000000006032 Rises=F Damp=F
 DIIS: error= 5.27D-07 at cycle   6 NSaved=   6.
 NSaved= 6 IEnMin= 6 EnMin= -2198.60471588647     IErMin= 6 ErrMin= 5.27D-07
 ErrMax= 5.27D-07  0.00D+00 EMaxC= 1.00D-01 BMatC= 5.71D-10 BMatP= 6.24D-09
 IDIUse=1 WtCom= 1.00D+00 WtEn= 0.00D+00
 Coeff-Com: -0.795D-03 0.818D-01 0.281D-01 0.940D-01 0.249D+00 0.548D+00
 Coeff:     -0.795D-03 0.818D-01 0.281D-01 0.940D-01 0.249D+00 0.548D+00
 Gap=     0.177 Goal=   None    Shift=    0.000
 RMSDP=4.04D-08 MaxDP=2.35D-06 DE=-6.03D-09 OVMax= 5.89D-06

 Cycle  14  Pass 1  IDiag  1:
 RMSU=  2.69D-08    CP:  9.99D-01  1.01D+00  3.34D-01  5.30D-01  8.03D-01
                    CP:  7.28D-01
 E= -2198.60471588700     Delta-E=       -0.000000000531 Rises=F Damp=F
 DIIS: error= 1.53D-07 at cycle   7 NSaved=   7.
 NSaved= 7 IEnMin= 7 EnMin= -2198.60471588700     IErMin= 7 ErrMin= 1.53D-07
 ErrMax= 1.53D-07  0.00D+00 EMaxC= 1.00D-01 BMatC= 4.32D-11 BMatP= 5.71D-10
 IDIUse=1 WtCom= 1.00D+00 WtEn= 0.00D+00
 Coeff-Com: -0.146D-03 0.142D-01 0.438D-02 0.199D-01 0.824D-01 0.285D+00
 Coeff-Com:  0.594D+00
 Coeff:     -0.146D-03 0.142D-01 0.438D-02 0.199D-01 0.824D-01 0.285D+00
 Coeff:      0.594D+00
 Gap=     0.177 Goal=   None    Shift=    0.000
 RMSDP=1.17D-08 MaxDP=8.05D-07 DE=-5.31D-10 OVMax= 1.61D-06

 Cycle  15  Pass 1  IDiag  1:
 RMSU=  7.31D-09    CP:  9.99D-01  1.01D+00  3.34D-01  5.33D-01  8.04D-01
                    CP:  7.72D-01  7.18D-01
 E= -2198.60471588712     Delta-E=       -0.000000000115 Rises=F Damp=F
 DIIS: error= 4.16D-08 at cycle   8 NSaved=   8.
 NSaved= 8 IEnMin= 8 EnMin= -2198.60471588712     IErMin= 8 ErrMin= 4.16D-08
 ErrMax= 4.16D-08  0.00D+00 EMaxC= 1.00D-01 BMatC= 6.00D-12 BMatP= 4.32D-11
 IDIUse=1 WtCom= 1.00D+00 WtEn= 0.00D+00
 Coeff-Com:  0.640D-05-0.109D-02-0.624D-03 0.625D-03 0.193D-01 0.100D+00
 Coeff-Com:  0.339D+00 0.543D+00
 Coeff:      0.640D-05-0.109D-02-0.624D-03 0.625D-03 0.193D-01 0.100D+00
 Coeff:      0.339D+00 0.543D+00
 Gap=     0.177 Goal=   None    Shift=    0.000
 RMSDP=3.69D-09 MaxDP=2.90D-07 DE=-1.15D-10 OVMax= 5.14D-07

 SCF Done:  E(RB3LYP) =  -2198.60471589     A.U. after   15 cycles
            NFock= 15  Conv=0.37D-08     -V/T= 2.0098
 KE= 2.177268775645D+03 PE=-2.124750572704D+04 EE= 8.794090952886D+03
 Leave Link  502 at Fri Nov  7 11:30:30 2025, MaxMem=   104857600 cpu:            1101.8 elap:            1103.2
 (Enter /sw/cluster/pub/apps//g16/l601.exe)
 Copying SCF densities to generalized density rwf, IOpCl= 0 IROHF=0.
 Hyperfine terms turned off by default for NAtoms > 100.

 **********************************************************************

            Population analysis using the SCF density.

 **********************************************************************

 Alpha  occ. eigenvalues --  -10.20742 -10.20741 -10.20553 -10.20552 -10.19280
 Alpha  occ. eigenvalues --  -10.19201 -10.19195 -10.18361 -10.18348 -10.18309
 Alpha  occ. eigenvalues --  -10.18295 -10.18279 -10.18271 -10.18253 -10.18248
 Alpha  occ. eigenvalues --  -10.18243 -10.18235 -10.18200 -10.18190 -10.18185
 Alpha  occ. eigenvalues --  -10.18171 -10.18161 -10.18156 -10.18141 -10.18140
 Alpha  occ. eigenvalues --  -10.18122 -10.18110 -10.18035 -10.18030 -10.17996
 Alpha  occ. eigenvalues --  -10.17990 -10.17989 -10.17987 -10.17972 -10.17962
 Alpha  occ. eigenvalues --  -10.17936 -10.17934 -10.17915 -10.17906 -10.17860
 Alpha  occ. eigenvalues --  -10.17856 -10.17802 -10.17800 -10.17776 -10.17772
 Alpha  occ. eigenvalues --  -10.17725 -10.17724 -10.17660 -10.17659 -10.17567
 Alpha  occ. eigenvalues --  -10.17565 -10.17483 -10.17481 -10.17334 -10.17332
 Alpha  occ. eigenvalues --  -10.17269 -10.17266  -0.88506  -0.88103  -0.87497
 Alpha  occ. eigenvalues --   -0.86931  -0.83322  -0.83301  -0.83055  -0.82848
 Alpha  occ. eigenvalues --   -0.81699  -0.80849  -0.79583  -0.78474  -0.76720
 Alpha  occ. eigenvalues --   -0.76569  -0.76097  -0.75330  -0.73318  -0.73284
 Alpha  occ. eigenvalues --   -0.73076  -0.73019  -0.72730  -0.72662  -0.71820
 Alpha  occ. eigenvalues --   -0.70325  -0.70322  -0.70159  -0.70039  -0.69982
 Alpha  occ. eigenvalues --   -0.66923  -0.64410  -0.63630  -0.63474  -0.63389
 Alpha  occ. eigenvalues --   -0.61772  -0.61243  -0.61011  -0.60963  -0.57557
 Alpha  occ. eigenvalues --   -0.57496  -0.57261  -0.57045  -0.56724  -0.56583
 Alpha  occ. eigenvalues --   -0.56571  -0.56336  -0.56121  -0.55049  -0.54219
 Alpha  occ. eigenvalues --   -0.54132  -0.50608  -0.50171  -0.49775  -0.49750
 Alpha  occ. eigenvalues --   -0.49156  -0.48838  -0.48384  -0.47905  -0.46778
 Alpha  occ. eigenvalues --   -0.46503  -0.45658  -0.45467  -0.45089  -0.44577
 Alpha  occ. eigenvalues --   -0.44387  -0.44382  -0.43698  -0.43584  -0.43469
 Alpha  occ. eigenvalues --   -0.43117  -0.43083  -0.42935  -0.42709  -0.42693
 Alpha  occ. eigenvalues --   -0.42594  -0.42431  -0.41743  -0.41184  -0.40887
 Alpha  occ. eigenvalues --   -0.40771  -0.40701  -0.40685  -0.40599  -0.40560
 Alpha  occ. eigenvalues --   -0.40404  -0.40137  -0.39425  -0.38584  -0.38350
 Alpha  occ. eigenvalues --   -0.37918  -0.37609  -0.37393  -0.37390  -0.37309
 Alpha  occ. eigenvalues --   -0.37302  -0.36873  -0.36512  -0.36345  -0.35792
 Alpha  occ. eigenvalues --   -0.34874  -0.34615  -0.34081  -0.33997  -0.33961
 Alpha  occ. eigenvalues --   -0.33858  -0.33761  -0.33684  -0.33558  -0.33321
 Alpha  occ. eigenvalues --   -0.33000  -0.32997  -0.32773  -0.31986  -0.31780
 Alpha  occ. eigenvalues --   -0.31514  -0.31256  -0.31214  -0.30797  -0.30700
 Alpha  occ. eigenvalues --   -0.30456  -0.30025  -0.27129  -0.27092  -0.26897
 Alpha  occ. eigenvalues --   -0.26461  -0.24550  -0.24541  -0.24071  -0.23944
 Alpha  occ. eigenvalues --   -0.23479  -0.22994  -0.22733  -0.21466  -0.20457
 Alpha  occ. eigenvalues --   -0.20358  -0.20022  -0.19899
 Alpha virt. eigenvalues --   -0.02197  -0.02159  -0.01944  -0.01664  -0.00534
 Alpha virt. eigenvalues --   -0.00497  -0.00092   0.00543   0.01779   0.01799
 Alpha virt. eigenvalues --    0.02239   0.02258   0.05111   0.05137   0.05447
 Alpha virt. eigenvalues --    0.05615   0.06436   0.08711   0.09637   0.10321
 Alpha virt. eigenvalues --    0.10763   0.10895   0.10937   0.10976   0.11238
 Alpha virt. eigenvalues --    0.11308   0.11326   0.12011   0.12616   0.13656
 Alpha virt. eigenvalues --    0.13874   0.14055   0.14187   0.14278   0.14409
 Alpha virt. eigenvalues --    0.14415   0.14677   0.15272   0.15432   0.15765
 Alpha virt. eigenvalues --    0.16248   0.16427   0.16765   0.16783   0.16946
 Alpha virt. eigenvalues --    0.16967   0.17175   0.17369   0.17591   0.17619
 Alpha virt. eigenvalues --    0.17734   0.18736   0.18959   0.19001   0.19285
 Alpha virt. eigenvalues --    0.19494   0.20591   0.20796   0.21103   0.21122
 Alpha virt. eigenvalues --    0.21384   0.21485   0.21757   0.21931   0.22226
 Alpha virt. eigenvalues --    0.22283   0.22534   0.22823   0.23207   0.23491
 Alpha virt. eigenvalues --    0.23883   0.24915   0.25189   0.25372   0.25499
 Alpha virt. eigenvalues --    0.25737   0.25798   0.26489   0.26662   0.27159
 Alpha virt. eigenvalues --    0.27286   0.27432   0.27432   0.27722   0.28023
 Alpha virt. eigenvalues --    0.28069   0.28439   0.29094   0.30017   0.30685
 Alpha virt. eigenvalues --    0.30801   0.30896   0.31104   0.31266   0.32028
 Alpha virt. eigenvalues --    0.32151   0.32698   0.32807   0.33016   0.33102
 Alpha virt. eigenvalues --    0.33463   0.33732   0.34172   0.34342   0.37443
 Alpha virt. eigenvalues --    0.37566   0.38156   0.38380   0.38824   0.38867
 Alpha virt. eigenvalues --    0.39673   0.40314   0.40481   0.40617   0.40781
 Alpha virt. eigenvalues --    0.40926   0.41305   0.41451   0.41584   0.42143
 Alpha virt. eigenvalues --    0.43006   0.43678   0.44551   0.45092   0.45749
 Alpha virt. eigenvalues --    0.46178   0.48404   0.48934   0.49396   0.49504
 Alpha virt. eigenvalues --    0.49970   0.50417   0.50549   0.50805   0.51181
 Alpha virt. eigenvalues --    0.51473   0.52001   0.52493   0.52604   0.52955
 Alpha virt. eigenvalues --    0.53275   0.53653   0.53715   0.53849   0.54847
 Alpha virt. eigenvalues --    0.55073   0.55178   0.55368   0.55591   0.55689
 Alpha virt. eigenvalues --    0.56007   0.56248   0.56261   0.56280   0.56422
 Alpha virt. eigenvalues --    0.56724   0.56735   0.57223   0.57403   0.57490
 Alpha virt. eigenvalues --    0.57934   0.58095   0.58315   0.58523   0.58552
 Alpha virt. eigenvalues --    0.58697   0.58935   0.59140   0.59186   0.59685
 Alpha virt. eigenvalues --    0.59907   0.60378   0.60411   0.60682   0.61022
 Alpha virt. eigenvalues --    0.61220   0.61297   0.61428   0.61581   0.61705
 Alpha virt. eigenvalues --    0.61867   0.62251   0.62284   0.62577   0.62843
 Alpha virt. eigenvalues --    0.63198   0.63646   0.63825   0.63841   0.63882
 Alpha virt. eigenvalues --    0.64342   0.64462   0.64543   0.65183   0.65390
 Alpha virt. eigenvalues --    0.65726   0.65844   0.66454   0.66553   0.66801
 Alpha virt. eigenvalues --    0.67181   0.67406   0.67625   0.67912   0.67991
 Alpha virt. eigenvalues --    0.68237   0.68498   0.68838   0.69471   0.70422
 Alpha virt. eigenvalues --    0.71237   0.71485   0.71683   0.71696   0.72343
 Alpha virt. eigenvalues --    0.73166   0.73453   0.73753   0.74503   0.75166
 Alpha virt. eigenvalues --    0.75416   0.75550   0.75799   0.76104   0.76260
 Alpha virt. eigenvalues --    0.77120   0.77164   0.78224   0.78737   0.78963
 Alpha virt. eigenvalues --    0.79100   0.79148   0.79467   0.79820   0.80571
 Alpha virt. eigenvalues --    0.81121   0.81165   0.81306   0.82051   0.82176
 Alpha virt. eigenvalues --    0.82465   0.82624   0.82873   0.83118   0.83555
 Alpha virt. eigenvalues --    0.83768   0.84092   0.84602   0.84626   0.84704
 Alpha virt. eigenvalues --    0.84789   0.85043   0.85331   0.85378   0.85559
 Alpha virt. eigenvalues --    0.86088   0.86244   0.86337   0.86629   0.86647
 Alpha virt. eigenvalues --    0.87107   0.87639   0.87660   0.87891   0.87927
 Alpha virt. eigenvalues --    0.88346   0.88707   0.88898   0.89099   0.89741
 Alpha virt. eigenvalues --    0.90608   0.90669   0.90976   0.91276   0.91519
 Alpha virt. eigenvalues --    0.91644   0.91974   0.92318   0.92439   0.92615
 Alpha virt. eigenvalues --    0.92633   0.93539   0.93701   0.94091   0.94273
 Alpha virt. eigenvalues --    0.94324   0.94779   0.95468   0.95512   0.95709
 Alpha virt. eigenvalues --    0.95891   0.96185   0.96226   0.96968   0.97075
 Alpha virt. eigenvalues --    0.97291   0.97947   0.98634   0.98845   0.99033
 Alpha virt. eigenvalues --    0.99385   0.99427   0.99767   0.99905   1.00092
 Alpha virt. eigenvalues --    1.00581   1.00824   1.01934   1.02063   1.02411
 Alpha virt. eigenvalues --    1.02705   1.03319   1.03434   1.03699   1.04738
 Alpha virt. eigenvalues --    1.04877   1.05087   1.05458   1.05636   1.06169
 Alpha virt. eigenvalues --    1.06507   1.07190   1.07552   1.08189   1.08452
 Alpha virt. eigenvalues --    1.08776   1.09319   1.10223   1.11128   1.11220
 Alpha virt. eigenvalues --    1.11698   1.12094   1.12347   1.13147   1.13441
 Alpha virt. eigenvalues --    1.14659   1.15172   1.15645   1.15980   1.16605
 Alpha virt. eigenvalues --    1.16794   1.17484   1.17962   1.18246   1.18879
 Alpha virt. eigenvalues --    1.20184   1.20403   1.20633   1.20937   1.21264
 Alpha virt. eigenvalues --    1.22268   1.22882   1.23074   1.23527   1.24070
 Alpha virt. eigenvalues --    1.24188   1.24691   1.24946   1.25481   1.25683
 Alpha virt. eigenvalues --    1.26890   1.27235   1.27417   1.27671   1.27703
 Alpha virt. eigenvalues --    1.28897   1.29084   1.29533   1.30490   1.30859
 Alpha virt. eigenvalues --    1.32229   1.33187   1.34033   1.34841   1.35019
 Alpha virt. eigenvalues --    1.35793   1.35991   1.37888   1.38175   1.39492
 Alpha virt. eigenvalues --    1.40240   1.40559   1.41218   1.41982   1.42886
 Alpha virt. eigenvalues --    1.43116   1.43495   1.43605   1.44416   1.44438
 Alpha virt. eigenvalues --    1.44677   1.45013   1.45279   1.45359   1.46361
 Alpha virt. eigenvalues --    1.46786   1.47024   1.47168   1.47487   1.47771
 Alpha virt. eigenvalues --    1.47951   1.48585   1.48973   1.49217   1.49413
 Alpha virt. eigenvalues --    1.49912   1.50404   1.50624   1.50696   1.50760
 Alpha virt. eigenvalues --    1.50817   1.51115   1.51169   1.51519   1.51825
 Alpha virt. eigenvalues --    1.51904   1.52402   1.52430   1.52683   1.52825
 Alpha virt. eigenvalues --    1.53741   1.54032   1.54702   1.56354   1.56533
 Alpha virt. eigenvalues --    1.56720   1.57828   1.59073   1.59675   1.60799
 Alpha virt. eigenvalues --    1.61856   1.62432   1.63649   1.63859   1.67685
 Alpha virt. eigenvalues --    1.68492   1.69369   1.69930   1.70918   1.71197
 Alpha virt. eigenvalues --    1.71344   1.72841   1.74039   1.76064   1.76415
 Alpha virt. eigenvalues --    1.76538   1.77200   1.77879   1.78775   1.78918
 Alpha virt. eigenvalues --    1.79179   1.79595   1.79628   1.80074   1.80389
 Alpha virt. eigenvalues --    1.80875   1.81031   1.82438   1.82584   1.83172
 Alpha virt. eigenvalues --    1.83650   1.83762   1.83857   1.83967   1.85165
 Alpha virt. eigenvalues --    1.85775   1.86371   1.87233   1.87539   1.88499
 Alpha virt. eigenvalues --    1.88763   1.89123   1.89618   1.89809   1.91083
 Alpha virt. eigenvalues --    1.91309   1.91387   1.91535   1.91624   1.92269
 Alpha virt. eigenvalues --    1.92364   1.93133   1.93271   1.93391   1.93689
 Alpha virt. eigenvalues --    1.93917   1.94174   1.94571   1.94639   1.95306
 Alpha virt. eigenvalues --    1.95591   1.96333   1.96417   1.96663   1.97771
 Alpha virt. eigenvalues --    1.98102   1.98678   1.98753   1.99617   2.00250
 Alpha virt. eigenvalues --    2.00352   2.00774   2.00792   2.01952   2.02222
 Alpha virt. eigenvalues --    2.02460   2.03220   2.03276   2.04341   2.04432
 Alpha virt. eigenvalues --    2.04668   2.05392   2.05594   2.06731   2.06912
 Alpha virt. eigenvalues --    2.07195   2.08120   2.09635   2.09729   2.09908
 Alpha virt. eigenvalues --    2.10231   2.10909   2.10967   2.11379   2.12015
 Alpha virt. eigenvalues --    2.12317   2.12740   2.13377   2.14278   2.15326
 Alpha virt. eigenvalues --    2.15692   2.15862   2.16594   2.16901   2.17917
 Alpha virt. eigenvalues --    2.18147   2.19396   2.19719   2.20105   2.20689
 Alpha virt. eigenvalues --    2.21436   2.21553   2.22042   2.22313   2.22426
 Alpha virt. eigenvalues --    2.22879   2.23077   2.23429   2.23619   2.24117
 Alpha virt. eigenvalues --    2.25467   2.25680   2.25918   2.26531   2.26751
 Alpha virt. eigenvalues --    2.26849   2.27030   2.27271   2.27787   2.28156
 Alpha virt. eigenvalues --    2.28400   2.28701   2.28971   2.29505   2.29529
 Alpha virt. eigenvalues --    2.29883   2.30007   2.30460   2.30997   2.31516
 Alpha virt. eigenvalues --    2.31575   2.31934   2.32605   2.32965   2.33636
 Alpha virt. eigenvalues --    2.33904   2.34001   2.34524   2.34665   2.34839
 Alpha virt. eigenvalues --    2.35532   2.35673   2.35965   2.37835   2.38060
 Alpha virt. eigenvalues --    2.40112   2.40852   2.42237   2.42572   2.43021
 Alpha virt. eigenvalues --    2.43501   2.44621   2.44871   2.45067   2.46988
 Alpha virt. eigenvalues --    2.47125   2.48771   2.48891   2.49487   2.50274
 Alpha virt. eigenvalues --    2.50921   2.51752   2.52312   2.55705   2.55972
 Alpha virt. eigenvalues --    2.56756   2.56958   2.57733   2.59141   2.59349
 Alpha virt. eigenvalues --    2.60870   2.61448   2.61955   2.62752   2.62912
 Alpha virt. eigenvalues --    2.63309   2.64088   2.64773   2.65261   2.66113
 Alpha virt. eigenvalues --    2.66138   2.66433   2.66637   2.67774   2.68628
 Alpha virt. eigenvalues --    2.69609   2.69900   2.69940   2.70108   2.70695
 Alpha virt. eigenvalues --    2.71156   2.71238   2.71451   2.71626   2.71630
 Alpha virt. eigenvalues --    2.72110   2.72231   2.72960   2.73047   2.73543
 Alpha virt. eigenvalues --    2.74108   2.74746   2.74818   2.75431   2.75494
 Alpha virt. eigenvalues --    2.78014   2.78096   2.78680   2.79500   2.80003
 Alpha virt. eigenvalues --    2.80392   2.80890   2.82597   2.83709   2.83806
 Alpha virt. eigenvalues --    2.84492   2.85199   2.85231   2.86086   2.86617
 Alpha virt. eigenvalues --    2.86694   2.87799   2.89007   2.90318   2.91040
 Alpha virt. eigenvalues --    2.94589   2.95189   2.96621   2.96985   2.98158
 Alpha virt. eigenvalues --    2.98532   3.00117   3.02702   3.02951   3.04771
 Alpha virt. eigenvalues --    3.05166   3.07261   3.12521   3.12570   3.13522
 Alpha virt. eigenvalues --    3.20687   3.30036   3.30179   3.31166   3.31284
 Alpha virt. eigenvalues --    3.36166   3.36193   3.37204   3.37503   3.51636
 Alpha virt. eigenvalues --    3.51699   3.52451   3.53323   4.05860   4.06759
 Alpha virt. eigenvalues --    4.09135   4.09958   4.10472   4.11253   4.11497
 Alpha virt. eigenvalues --    4.12360   4.12816   4.13328   4.13718   4.14005
 Alpha virt. eigenvalues --    4.15627   4.16660   4.17415   4.17569   4.19021
 Alpha virt. eigenvalues --    4.19331   4.21969   4.22496   4.23732   4.24626
 Alpha virt. eigenvalues --    4.25541   4.26567   4.27382   4.28612   4.29329
 Alpha virt. eigenvalues --    4.32021   4.33836   4.34447   4.34858   4.35103
 Alpha virt. eigenvalues --    4.37969   4.39173   4.40126   4.42301   4.43119
 Alpha virt. eigenvalues --    4.45270   4.45694   4.45783   4.47808   4.48116
 Alpha virt. eigenvalues --    4.49328   4.49920   4.53741   4.64710   4.66751
 Alpha virt. eigenvalues --    4.69222   4.75297   4.82209   4.83644   4.84182
 Alpha virt. eigenvalues --    4.84712   4.86838   4.87913   4.92492   4.99938
          Condensed to atoms (all electrons):
 Mulliken charges:
               1
     1  C   -0.068300
     2  C   -0.067531
     3  C   -0.068450
     4  H    0.134095
     5  H    0.133934
     6  C   -0.066525
     7  H    0.134940
     8  H    0.133558
     9  H    0.133474
    10  H    0.135080
    11  C    0.085750
    12  C    0.095486
    13  C    0.104744
    14  C    0.107508
    15  C    0.091029
    16  C    0.102994
    17  C    0.083629
    18  C    0.090380
    19  C    0.102976
    20  C    0.091003
    21  C    0.089882
    22  C    0.084025
    23  C    0.086143
    24  C    0.095103
    25  C    0.105470
    26  C    0.107370
    27  C   -0.217929
    28  C   -0.208067
    29  C   -0.185881
    30  C   -0.172846
    31  C   -0.133838
    32  C   -0.132404
    33  C   -0.123241
    34  C   -0.129181
    35  C   -0.138791
    36  C   -0.138114
    37  C   -0.136727
    38  C   -0.137154
    39  C   -0.175497
    40  C   -0.184798
    41  C   -0.190101
    42  C   -0.189112
    43  H    0.122926
    44  H    0.124814
    45  H    0.126859
    46  H    0.126794
    47  H    0.122419
    48  H    0.124127
    49  H    0.122694
    50  H    0.119481
    51  H    0.120524
    52  H    0.122418
    53  H    0.121882
    54  H    0.123171
    55  H    0.118105
    56  H    0.119111
    57  H    0.122513
    58  H    0.124959
    59  C   -0.190254
    60  C   -0.189088
    61  C   -0.184827
    62  C   -0.175607
    63  C   -0.138058
    64  C   -0.138798
    65  C   -0.137310
    66  C   -0.136498
    67  C   -0.129108
    68  C   -0.123457
    69  C   -0.132562
    70  C   -0.133621
    71  C   -0.208095
    72  C   -0.217788
    73  C   -0.185529
    74  C   -0.173042
    75  H    0.119317
    76  H    0.117914
    77  H    0.122928
    78  H    0.124459
    79  H    0.123140
    80  H    0.121953
    81  H    0.122480
    82  H    0.120462
    83  H    0.122719
    84  H    0.119450
    85  H    0.124226
    86  H    0.122367
    87  H    0.124788
    88  H    0.122921
    89  H    0.126874
    90  H    0.126744
    91  C   -0.440809
    92  H    0.160098
    93  H    0.140874
    94  H    0.144715
    95  C   -0.267470
    96  C   -0.266752
    97  C   -0.271291
    98  C   -0.441133
    99  H    0.140858
   100  H    0.144890
   101  H    0.160037
 Sum of Mulliken charges =  -0.00000
 Mulliken charges with hydrogens summed into heavy atoms:
               1
     1  C   -0.068300
     2  C   -0.067531
     3  C   -0.068450
     6  C   -0.066525
    11  C    0.085750
    12  C    0.095486
    13  C    0.104744
    14  C    0.107508
    15  C    0.091029
    16  C    0.102994
    17  C    0.083629
    18  C    0.090380
    19  C    0.102976
    20  C    0.091003
    21  C    0.089882
    22  C    0.084025
    23  C    0.086143
    24  C    0.095103
    25  C    0.105470
    26  C    0.107370
    27  C   -0.099824
    28  C   -0.088956
    29  C   -0.060922
    30  C   -0.050333
    31  C   -0.013313
    32  C   -0.009987
    33  C   -0.001359
    34  C   -0.006010
    35  C   -0.019309
    36  C   -0.015420
    37  C   -0.014307
    38  C   -0.013027
    39  C   -0.048639
    40  C   -0.058003
    41  C   -0.065287
    42  C   -0.066186
    59  C   -0.065467
    60  C   -0.066167
    61  C   -0.057953
    62  C   -0.048863
    63  C   -0.015339
    64  C   -0.019348
    65  C   -0.013084
    66  C   -0.014131
    67  C   -0.005968
    68  C   -0.001504
    69  C   -0.010082
    70  C   -0.013159
    71  C   -0.088778
    72  C   -0.099874
    73  C   -0.061070
    74  C   -0.050114
    91  C    0.004878
    95  C    0.001168
    96  C    0.001662
    97  C   -0.003261
    98  C    0.004652
 Electronic spatial extent (au):  <R**2>=          36666.8641
 Charge=             -0.0000 electrons
 Dipole moment (field-independent basis, Debye):
    X=              0.4406    Y=             -0.1242    Z=             -0.3185  Tot=              0.5577
 Quadrupole moment (field-independent basis, Debye-Ang):
   XX=           -316.4061   YY=           -302.0018   ZZ=           -329.1842
   XY=              3.1933   XZ=            -14.0799   YZ=              2.2901
 Traceless Quadrupole moment (field-independent basis, Debye-Ang):
   XX=             -0.5421   YY=             13.8622   ZZ=            -13.3202
   XY=              3.1933   XZ=            -14.0799   YZ=              2.2901
 Octapole moment (field-independent basis, Debye-Ang**2):
  XXX=            449.8113  YYY=           -209.1643  ZZZ=          -1729.6591  XYY=            167.6876
  XXY=            -64.1254  XXZ=           -629.3060  XZZ=            127.9918  YZZ=            -56.4777
  YYZ=           -565.5697  XYZ=             13.0431
 Hexadecapole moment (field-independent basis, Debye-Ang**3):
 XXXX=         -13354.2122 YYYY=          -9045.9798 ZZZZ=         -26977.3018 XXXY=           -204.6871
 XXXZ=          -4662.9339 YYYX=           -140.8712 YYYZ=             32.4421 ZZZX=          -5077.2286
 ZZZY=            157.4203 XXYY=          -3705.0816 XXZZ=          -7186.3915 YYZZ=          -5966.0537
 XXYZ=             41.9981 YYXZ=          -1457.9579 ZZXY=             63.1403
 N-N= 8.077541282625D+03 E-N=-2.124750569480D+04  KE= 2.177268775645D+03
 Leave Link  601 at Fri Nov  7 11:30:30 2025, MaxMem=   104857600 cpu:               0.1 elap:               0.1
 (Enter /sw/cluster/pub/apps//g16/l9999.exe)
 1\1\GINC-N02\SP\RB3LYP\6-31G(d)\C57H44\UNKNOWN\07-Nov-2025\0\\#P B3LYP
 /6-31G* nosymm Density=Current\\Single-Point F4\\0,1\C,0,-0.63333795,0
 .37125086,0.25000705\C,0,3.10508166,-0.435321,4.13229146\C,0,0.8260117
 2,-0.27563059,2.5512664\H,0,0.92983089,-1.10265994,0.57775671\H,0,1.46
 458993,0.55472301,0.64590327\C,0,-1.42028996,0.09191324,-2.39952816\H,
 0,2.89292942,0.2530631,2.12580515\H,0,0.47720093,0.71406873,-1.5632180
 6\H,0,2.60746419,-1.45841848,2.29123203\H,0,0.07995187,-0.96393434,-1.
 31309404\C,0,-1.95535079,-0.18826065,0.77992685\C,0,2.43987829,-1.1151
 0478,5.33145025\C,0,-2.34976295,-1.1247867,-2.39952816\C,0,0.04574901,
 -1.49068933,3.06291629\C,0,-3.69913788,-0.72597671,-2.42069087\C,0,-0.
 86940349,-1.11643928,4.06215998\C,0,2.30404885,-0.20903404,6.40321603\
 C,0,-2.79465235,0.85692231,1.21800734\C,0,-2.10698871,2.1350412,1.0128
 3449\C,0,2.83478527,1.09437474,5.98941507\C,0,-0.75679836,0.32960146,4
 .27499588\C,0,-3.75045188,0.73996415,-2.42241744\C,0,0.22443498,0.8441
 1054,3.4025449\C,0,-2.43235906,1.24018859,-2.39952816\C,0,3.30050483,0
 .98644107,4.66580447\C,0,-0.84570742,1.87527651,0.44885059\C,0,0.01323
 155,2.92457376,0.13962546\C,0,3.91092775,2.07274687,4.04824265\C,0,-2.
 21003557,2.61080609,-2.48623876\C,0,0.52383445,2.20235085,3.4240815\C,
 0,-0.39139683,4.23938381,0.39859005\C,0,4.03175898,3.27901382,4.748017
 2\C,0,-0.15527713,3.04106609,4.31259977\C,0,-3.30409412,3.48010375,-2.
 54985961\C,0,-1.1291368,2.52690024,5.17489031\C,0,-4.61112398,2.982069
 19,-2.54331377\C,0,-1.64578376,4.49512467,0.96239604\C,0,3.55048135,3.
 39025421,6.05674054\C,0,-2.51169863,3.4445931,1.27344226\C,0,2.9530448
 4,2.29719828,6.68798645\C,0,-4.84298068,1.60707531,-2.48611008\C,0,-1.
 43724944,1.16627735,5.1613901\H,0,-2.19203863,0.76559801,5.83323402\H,
 0,-5.85874635,1.21993454,-2.50031101\H,0,-3.48581376,3.64854714,1.7100
 4939\H,0,2.59021642,2.3853956,7.70893089\H,0,-1.9489389,5.52019909,1.1
 5972116\H,0,3.64959404,4.3325371,6.58940645\H,0,-5.45143318,3.66985803
 ,-2.59219097\H,0,-1.64856227,3.19164678,5.86054995\H,0,0.27327835,5.06
 607595,0.16076811\H,0,4.50561434,4.13372538,4.27223047\H,0,0.0787175,4
 .10159014,4.33116142\H,0,-3.13433144,4.55207496,-2.60148502\H,0,0.9922
 0468,2.73820185,-0.29834297\H,0,4.29362036,1.9965977,3.03247288\H,0,1.
 27563036,2.61871144,2.7633302\H,0,-1.20228605,3.01445872,-2.4880905\C,
 0,1.77777892,-0.62482509,7.62791912\C,0,-4.06217462,0.58772366,1.73702
 647\C,0,-4.72022186,-1.67686445,-2.46603113\C,0,-1.6845484,-2.07096573
 ,4.67123888\C,0,1.39975219,-1.95939692,7.78221193\C,0,-4.49218663,-0.7
 3731161,1.81243102\C,0,-4.38221114,-3.03145411,-2.5003296\C,0,-1.57672
 974,-3.40574719,4.27482356\C,0,1.55853892,-2.8665551,6.72947904\C,0,-3
 .66544135,-1.77647517,1.37324509\C,0,-3.04104098,-3.42908136,-2.497963
 6\C,0,-0.66389773,-3.78129191,3.28365978\C,0,-2.01831908,-2.47452596,-
 2.45104499\C,0,0.15235802,-2.82152097,2.67347567\C,0,2.08700736,-2.449
 53268,5.50335694\C,0,-2.39560079,-1.5055907,0.85513802\H,0,-0.97861975
 ,-2.79583302,-2.45492964\H,0,0.85826799,-3.12571282,1.90257782\H,0,-1.
 76884454,-2.32345053,0.51825876\H,0,2.19990605,-3.16537998,4.69510917\
 H,0,1.266862,-3.90482997,6.86199429\H,0,-4.00994014,-2.80482898,1.4331
 857\H,0,-2.79101512,-4.48618818,-2.53631024\H,0,-0.58853921,-4.8236676
 ,2.98447305\H,0,0.98715487,-2.29774919,8.72923061\H,0,-5.47702828,-0.9
 6342878,2.21341716\H,0,-5.16718783,-3.78239562,-2.53662325\H,0,-2.2064
 1741,-4.1591239,4.74120916\H,0,1.67107527,0.07532469,8.45273011\H,0,-4
 .70624354,1.39551768,2.07516438\H,0,-5.76369419,-1.37226414,-2.4780386
 1\H,0,-2.39356659,-1.78469435,5.44366744\C,0,4.50500133,-1.07391212,3.
 90883123\H,0,5.11230575,-0.9977144,4.81591421\H,0,5.03981713,-0.568413
 02,3.09584593\H,0,4.41051658,-2.13390725,3.64685668\C,0,-0.3422658,0.0
 4768029,-1.26475642\C,0,2.37543165,-0.48765956,2.74807159\C,0,0.670376
 21,-0.11950281,0.98951351\C,0,-0.63641438,0.11440237,-3.74176351\H,0,0
 .05676419,-0.7331453,-3.80305374\H,0,-0.05405564,1.03814426,-3.8349218
 2\H,0,-1.32382391,0.0551864,-4.59108462\\Version=ES64L-G16RevA.03\HF=-
 2198.6047159\RMSD=3.692e-09\Dipole=0.1733493,-0.0488516,-0.1253194\Qua
 drupole=-0.4030067,10.3062379,-9.9032313,2.3741221,-10.4680554,1.70261
 69\PG=C01 [X(C57H44)]\\@


 AN OPTIMIST IS A GUY
 THAT HAS NEVER HAD
 MUCH EXPERIENCE
   (CERTAIN MAXIMS OF ARCHY  -- DON MARQUIS)
 Job cpu time:       0 days  0 hours 19 minutes  6.2 seconds.
 Elapsed time:       0 days  0 hours 19 minutes  7.6 seconds.
 File lengths (MBytes):  RWF=    483 Int=      0 D2E=      0 Chk=     52 Scr=      1
 Normal termination of Gaussian 16 at Fri Nov  7 11:30:30 2025.
