Opt bz                                                                  
SP        RB3LYP                                                      6-31G(d)            
Number of atoms                            I               12
Info1-9                                    I   N=           9
          19          19           0           0           0         110
           1          18        -502
Full Title                                 C   N=           1
Opt bz      
Route                                      C   N=           4
#P B3LYP/6-31G* nosymm Density=Current          
Charge                                     I                0
Multiplicity                               I                1
Number of electrons                        I               42
Number of alpha electrons                  I               21
Number of beta electrons                   I               21
Number of basis functions                  I              102
Number of independent functions            I              102
Number of point charges in /Mol/           I                0
Number of translation vectors              I                0
Atomic numbers                             I   N=          12
           6           6           6           6           6           6
           1           1           1           1           1           1
Nuclear charges                            R   N=          12
  6.00000000E+00  6.00000000E+00  6.00000000E+00  6.00000000E+00  6.00000000E+00
  6.00000000E+00  1.00000000E+00  1.00000000E+00  1.00000000E+00  1.00000000E+00
  1.00000000E+00  1.00000000E+00
Current cartesian coordinates              R   N=          36
  2.63853403E+00 -6.08790956E-02  0.00000000E+00  1.26654311E+00 -2.31546972E+00
  0.00000000E+00 -1.37199000E+00 -2.25459288E+00  0.00000000E+00 -2.63853405E+00
  6.08790956E-02 -1.88972612E-08 -1.26654311E+00  2.31546974E+00  1.88972612E-08
  1.37199003E+00  2.25459286E+00  0.00000000E+00  4.69214374E+00 -1.08268721E-01
  0.00000000E+00  2.25231186E+00 -4.11763972E+00  0.00000000E+00 -2.43982551E+00
 -4.00938122E+00  0.00000000E+00 -4.69214378E+00  1.08268721E-01  0.00000000E+00
 -2.25231188E+00  4.11763975E+00  0.00000000E+00  2.43982551E+00  4.00938120E+00
 -3.77945225E-08
Number of symbols in /Mol/                 I                0
Force Field                                I                0
Atom Types                                 C   N=          12
                                                            
                                                            
                        
Int Atom Types                             I   N=          12
           0           0           0           0           0           0
           0           0           0           0           0           0
MM charges                                 R   N=          12
  0.00000000E+00  0.00000000E+00  0.00000000E+00  0.00000000E+00  0.00000000E+00
  0.00000000E+00  0.00000000E+00  0.00000000E+00  0.00000000E+00  0.00000000E+00
  0.00000000E+00  0.00000000E+00
Integer atomic weights                     I   N=          12
          12          12          12          12          12          12
           1           1           1           1           1           1
Real atomic weights                        R   N=          12
  1.20000000E+01  1.20000000E+01  1.20000000E+01  1.20000000E+01  1.20000000E+01
  1.20000000E+01  1.00782504E+00  1.00782504E+00  1.00782504E+00  1.00782504E+00
  1.00782504E+00  1.00782504E+00
Atom fragment info                         I   N=          12
           0           0           0           0           0           0
           0           0           0           0           0           0
Atom residue num                           I   N=          12
           0           0           0           0           0           0
           0           0           0           0           0           0
Nuclear spins                              I   N=          12
           0           0           0           0           0           0
           1           1           1           1           1           1
Nuclear ZEff                               R   N=          12
 -3.60000000E+00 -3.60000000E+00 -3.60000000E+00 -3.60000000E+00 -3.60000000E+00
 -3.60000000E+00 -1.00000000E+00 -1.00000000E+00 -1.00000000E+00 -1.00000000E+00
 -1.00000000E+00 -1.00000000E+00
Nuclear ZNuc                               R   N=          12
  6.00000000E+00  6.00000000E+00  6.00000000E+00  6.00000000E+00  6.00000000E+00
  6.00000000E+00  1.00000000E+00  1.00000000E+00  1.00000000E+00  1.00000000E+00
  1.00000000E+00  1.00000000E+00
Nuclear QMom                               R   N=          12
  0.00000000E+00  0.00000000E+00  0.00000000E+00  0.00000000E+00  0.00000000E+00
  0.00000000E+00  0.00000000E+00  0.00000000E+00  0.00000000E+00  0.00000000E+00
  0.00000000E+00  0.00000000E+00
Nuclear GFac                               R   N=          12
  0.00000000E+00  0.00000000E+00  0.00000000E+00  0.00000000E+00  0.00000000E+00
  0.00000000E+00  2.79284600E+00  2.79284600E+00  2.79284600E+00  2.79284600E+00
  2.79284600E+00  2.79284600E+00
MicOpt                                     I   N=          12
          -1          -1          -1          -1          -1          -1
          -1          -1          -1          -1          -1          -1
Number of residues                         I                0
Number of secondary structures             I                0
Number of contracted shells                I               36
Number of primitive shells                 I               90
Pure/Cartesian d shells                    I                1
Pure/Cartesian f shells                    I                0
Highest angular momentum                   I                2
Largest degree of contraction              I                6
Shell types                                I   N=          36
           0          -1          -1           2           0          -1
          -1           2           0          -1          -1           2
           0          -1          -1           2           0          -1
          -1           2           0          -1          -1           2
           0           0           0           0           0           0
           0           0           0           0           0           0
Number of primitives per shell             I   N=          36
           6           3           1           1           6           3
           1           1           6           3           1           1
           6           3           1           1           6           3
           1           1           6           3           1           1
           3           1           3           1           3           1
           3           1           3           1           3           1
Shell to atom map                          I   N=          36
           1           1           1           1           2           2
           2           2           3           3           3           3
           4           4           4           4           5           5
           5           5           6           6           6           6
           7           7           8           8           9           9
          10          10          11          11          12          12
Primitive exponents                        R   N=          90
  3.04752488E+03  4.57369518E+02  1.03948685E+02  2.92101553E+01  9.28666296E+00
  3.16392696E+00  7.86827235E+00  1.88128854E+00  5.44249258E-01  1.68714478E-01
  8.00000000E-01  3.04752488E+03  4.57369518E+02  1.03948685E+02  2.92101553E+01
  9.28666296E+00  3.16392696E+00  7.86827235E+00  1.88128854E+00  5.44249258E-01
  1.68714478E-01  8.00000000E-01  3.04752488E+03  4.57369518E+02  1.03948685E+02
  2.92101553E+01  9.28666296E+00  3.16392696E+00  7.86827235E+00  1.88128854E+00
  5.44249258E-01  1.68714478E-01  8.00000000E-01  3.04752488E+03  4.57369518E+02
  1.03948685E+02  2.92101553E+01  9.28666296E+00  3.16392696E+00  7.86827235E+00
  1.88128854E+00  5.44249258E-01  1.68714478E-01  8.00000000E-01  3.04752488E+03
  4.57369518E+02  1.03948685E+02  2.92101553E+01  9.28666296E+00  3.16392696E+00
  7.86827235E+00  1.88128854E+00  5.44249258E-01  1.68714478E-01  8.00000000E-01
  3.04752488E+03  4.57369518E+02  1.03948685E+02  2.92101553E+01  9.28666296E+00
  3.16392696E+00  7.86827235E+00  1.88128854E+00  5.44249258E-01  1.68714478E-01
  8.00000000E-01  1.87311370E+01  2.82539436E+00  6.40121692E-01  1.61277759E-01
  1.87311370E+01  2.82539436E+00  6.40121692E-01  1.61277759E-01  1.87311370E+01
  2.82539436E+00  6.40121692E-01  1.61277759E-01  1.87311370E+01  2.82539436E+00
  6.40121692E-01  1.61277759E-01  1.87311370E+01  2.82539436E+00  6.40121692E-01
  1.61277759E-01  1.87311370E+01  2.82539436E+00  6.40121692E-01  1.61277759E-01
Contraction coefficients                   R   N=          90
  1.83473713E-03  1.40373228E-02  6.88426223E-02  2.32184443E-01  4.67941348E-01
  3.62311985E-01 -1.19332420E-01 -1.60854152E-01  1.14345644E+00  1.00000000E+00
  1.00000000E+00  1.83473713E-03  1.40373228E-02  6.88426223E-02  2.32184443E-01
  4.67941348E-01  3.62311985E-01 -1.19332420E-01 -1.60854152E-01  1.14345644E+00
  1.00000000E+00  1.00000000E+00  1.83473713E-03  1.40373228E-02  6.88426223E-02
  2.32184443E-01  4.67941348E-01  3.62311985E-01 -1.19332420E-01 -1.60854152E-01
  1.14345644E+00  1.00000000E+00  1.00000000E+00  1.83473713E-03  1.40373228E-02
  6.88426223E-02  2.32184443E-01  4.67941348E-01  3.62311985E-01 -1.19332420E-01
 -1.60854152E-01  1.14345644E+00  1.00000000E+00  1.00000000E+00  1.83473713E-03
  1.40373228E-02  6.88426223E-02  2.32184443E-01  4.67941348E-01  3.62311985E-01
 -1.19332420E-01 -1.60854152E-01  1.14345644E+00  1.00000000E+00  1.00000000E+00
  1.83473713E-03  1.40373228E-02  6.88426223E-02  2.32184443E-01  4.67941348E-01
  3.62311985E-01 -1.19332420E-01 -1.60854152E-01  1.14345644E+00  1.00000000E+00
  1.00000000E+00  3.34946043E-02  2.34726953E-01  8.13757326E-01  1.00000000E+00
  3.34946043E-02  2.34726953E-01  8.13757326E-01  1.00000000E+00  3.34946043E-02
  2.34726953E-01  8.13757326E-01  1.00000000E+00  3.34946043E-02  2.34726953E-01
  8.13757326E-01  1.00000000E+00  3.34946043E-02  2.34726953E-01  8.13757326E-01
  1.00000000E+00  3.34946043E-02  2.34726953E-01  8.13757326E-01  1.00000000E+00
P(S=P) Contraction coefficients            R   N=          90
  0.00000000E+00  0.00000000E+00  0.00000000E+00  0.00000000E+00  0.00000000E+00
  0.00000000E+00  6.89990666E-02  3.16423961E-01  7.44308291E-01  1.00000000E+00
  0.00000000E+00  0.00000000E+00  0.00000000E+00  0.00000000E+00  0.00000000E+00
  0.00000000E+00  0.00000000E+00  6.89990666E-02  3.16423961E-01  7.44308291E-01
  1.00000000E+00  0.00000000E+00  0.00000000E+00  0.00000000E+00  0.00000000E+00
  0.00000000E+00  0.00000000E+00  0.00000000E+00  6.89990666E-02  3.16423961E-01
  7.44308291E-01  1.00000000E+00  0.00000000E+00  0.00000000E+00  0.00000000E+00
  0.00000000E+00  0.00000000E+00  0.00000000E+00  0.00000000E+00  6.89990666E-02
  3.16423961E-01  7.44308291E-01  1.00000000E+00  0.00000000E+00  0.00000000E+00
  0.00000000E+00  0.00000000E+00  0.00000000E+00  0.00000000E+00  0.00000000E+00
  6.89990666E-02  3.16423961E-01  7.44308291E-01  1.00000000E+00  0.00000000E+00
  0.00000000E+00  0.00000000E+00  0.00000000E+00  0.00000000E+00  0.00000000E+00
  0.00000000E+00  6.89990666E-02  3.16423961E-01  7.44308291E-01  1.00000000E+00
  0.00000000E+00  0.00000000E+00  0.00000000E+00  0.00000000E+00  0.00000000E+00
  0.00000000E+00  0.00000000E+00  0.00000000E+00  0.00000000E+00  0.00000000E+00
  0.00000000E+00  0.00000000E+00  0.00000000E+00  0.00000000E+00  0.00000000E+00
  0.00000000E+00  0.00000000E+00  0.00000000E+00  0.00000000E+00  0.00000000E+00
  0.00000000E+00  0.00000000E+00  0.00000000E+00  0.00000000E+00  0.00000000E+00
Coordinates of each shell                  R   N=         108
  2.63853403E+00 -6.08790956E-02  0.00000000E+00  2.63853403E+00 -6.08790956E-02
  0.00000000E+00  2.63853403E+00 -6.08790956E-02  0.00000000E+00  2.63853403E+00
 -6.08790956E-02  0.00000000E+00  1.26654311E+00 -2.31546972E+00  0.00000000E+00
  1.26654311E+00 -2.31546972E+00  0.00000000E+00  1.26654311E+00 -2.31546972E+00
  0.00000000E+00  1.26654311E+00 -2.31546972E+00  0.00000000E+00 -1.37199000E+00
 -2.25459288E+00  0.00000000E+00 -1.37199000E+00 -2.25459288E+00  0.00000000E+00
 -1.37199000E+00 -2.25459288E+00  0.00000000E+00 -1.37199000E+00 -2.25459288E+00
  0.00000000E+00 -2.63853405E+00  6.08790956E-02 -1.88972612E-08 -2.63853405E+00
  6.08790956E-02 -1.88972612E-08 -2.63853405E+00  6.08790956E-02 -1.88972612E-08
 -2.63853405E+00  6.08790956E-02 -1.88972612E-08 -1.26654311E+00  2.31546974E+00
  1.88972612E-08 -1.26654311E+00  2.31546974E+00  1.88972612E-08 -1.26654311E+00
  2.31546974E+00  1.88972612E-08 -1.26654311E+00  2.31546974E+00  1.88972612E-08
  1.37199003E+00  2.25459286E+00  0.00000000E+00  1.37199003E+00  2.25459286E+00
  0.00000000E+00  1.37199003E+00  2.25459286E+00  0.00000000E+00  1.37199003E+00
  2.25459286E+00  0.00000000E+00  4.69214374E+00 -1.08268721E-01  0.00000000E+00
  4.69214374E+00 -1.08268721E-01  0.00000000E+00  2.25231186E+00 -4.11763972E+00
  0.00000000E+00  2.25231186E+00 -4.11763972E+00  0.00000000E+00 -2.43982551E+00
 -4.00938122E+00  0.00000000E+00 -2.43982551E+00 -4.00938122E+00  0.00000000E+00
 -4.69214378E+00  1.08268721E-01  0.00000000E+00 -4.69214378E+00  1.08268721E-01
  0.00000000E+00 -2.25231188E+00  4.11763975E+00  0.00000000E+00 -2.25231188E+00
  4.11763975E+00  0.00000000E+00  2.43982551E+00  4.00938120E+00 -3.77945225E-08
  2.43982551E+00  4.00938120E+00 -3.77945225E-08
Num ILSW                                   I              100
ILSW                                       I   N=         100
           0           1           0           0           2           0
           0           0           0           0         402          -1
           5           0           0           0           0           0
           0           0           0           0           0           0
           1           1           0           0           0           0
           0           0      100000           0          -1           0
           0           0           0           0           0           0
           0           0           0           1           0           0
           0 -2000000000           1           0           0           0
           0           0           4          52           0           0
           0           0           5           0           0           0
           0           0           0          12           0           1
           0           0           0           0           0           0
           0           0           0           0           0           0
           0           0           0           0           0           0
           0           0           0           0           0           0
           0           0           0           0
Num RLSW                                   I               52
RLSW                                       R   N=          52
  8.00000000E-01  7.20000000E-01  1.00000000E+00  8.10000000E-01  2.00000000E-01
  0.00000000E+00  0.00000000E+00  1.00000000E+00  0.00000000E+00  0.00000000E+00
  0.00000000E+00  0.00000000E+00  1.00000000E+00  0.00000000E+00  0.00000000E+00
  0.00000000E+00  0.00000000E+00  1.00000000E+00  0.00000000E+00  0.00000000E+00
  0.00000000E+00  0.00000000E+00  1.00000000E+00  0.00000000E+00  0.00000000E+00
  0.00000000E+00  0.00000000E+00  1.00000000E+00  0.00000000E+00  0.00000000E+00
  0.00000000E+00  0.00000000E+00  1.00000000E+00  0.00000000E+00  0.00000000E+00
  0.00000000E+00  0.00000000E+00  0.00000000E+00  1.00000000E+00  1.00000000E+00
  0.00000000E+00  1.00000000E+00  0.00000000E+00  0.00000000E+00  0.00000000E+00
  0.00000000E+00  0.00000000E+00  0.00000000E+00  0.00000000E+00  0.00000000E+00
  0.00000000E+00  0.00000000E+00
MxBond                                     I                3
NBond                                      I   N=          12
           3           3           3           3           3           3
           1           1           1           1           1           1
IBond                                      I   N=          36
           2           6           7           1           3           8
           2           4           9           3           5          10
           4           6          11           1           5          12
           1           0           0           2           0           0
           3           0           0           4           0           0
           5           0           0           6           0           0
RBond                                      R   N=          36
  1.50000000E+00  1.50000000E+00  1.00000000E+00  1.50000000E+00  1.50000000E+00
  1.00000000E+00  1.50000000E+00  1.50000000E+00  1.00000000E+00  1.50000000E+00
  1.50000000E+00  1.00000000E+00  1.50000000E+00  1.50000000E+00  1.00000000E+00
  1.50000000E+00  1.50000000E+00  1.00000000E+00  1.00000000E+00  0.00000000E+00
  0.00000000E+00  1.00000000E+00  0.00000000E+00  0.00000000E+00  1.00000000E+00
  0.00000000E+00  0.00000000E+00  1.00000000E+00  0.00000000E+00  0.00000000E+00
  1.00000000E+00  0.00000000E+00  0.00000000E+00  1.00000000E+00  0.00000000E+00
  0.00000000E+00
Virial Ratio                               R      2.010102558316175E+00
SCF Energy                                 R     -2.322486500551535E+02
Total Energy                               R     -2.322486500551535E+02
RMS Density                                R      3.611042632880200E-09
Job Status                                 I                1
Nuclear derivative order                   I                0
External E-field                           R   N=          35
  0.00000000E+00  0.00000000E+00  0.00000000E+00  0.00000000E+00  0.00000000E+00
  0.00000000E+00  0.00000000E+00  0.00000000E+00  0.00000000E+00  0.00000000E+00
  0.00000000E+00  0.00000000E+00  0.00000000E+00  0.00000000E+00  0.00000000E+00
  0.00000000E+00  0.00000000E+00  0.00000000E+00  0.00000000E+00  0.00000000E+00
  0.00000000E+00  0.00000000E+00  0.00000000E+00  0.00000000E+00  0.00000000E+00
  0.00000000E+00  0.00000000E+00  0.00000000E+00  0.00000000E+00  0.00000000E+00
  0.00000000E+00  0.00000000E+00  0.00000000E+00  0.00000000E+00  0.00000000E+00
IOpCl                                      I                0
IROHF                                      I                0
Alpha Orbital Energies                     R   N=         102
 -1.01877402E+01 -1.01874756E+01 -1.01874754E+01 -1.01869233E+01 -1.01869232E+01
 -1.01866578E+01 -8.46323386E-01 -7.39830803E-01 -7.39829986E-01 -5.97490065E-01
 -5.97489533E-01 -5.18550975E-01 -4.59289371E-01 -4.38104371E-01 -4.17256607E-01
 -4.17255641E-01 -3.59395658E-01 -3.40271121E-01 -3.40271075E-01 -2.46293339E-01
 -2.46292495E-01  3.61802808E-03  3.61852997E-03  9.07419877E-02  1.44688425E-01
  1.44688902E-01  1.63942779E-01  1.81852110E-01  1.81852538E-01  1.90260591E-01
  3.02658982E-01  3.02659967E-01  3.19139973E-01  3.19140393E-01  4.74882265E-01
  5.27355630E-01  5.49038296E-01  5.50300127E-01  5.63969383E-01  5.92514154E-01
  6.02013638E-01  6.02014346E-01  6.02063756E-01  6.02065195E-01  6.26788559E-01
  6.26789541E-01  6.67536917E-01  6.67537327E-01  7.44867334E-01  8.40003278E-01
  8.40003499E-01  8.41101766E-01  8.65008866E-01  8.65009554E-01  9.39038044E-01
  9.39038666E-01  9.40625934E-01  9.57983887E-01  1.08261174E+00  1.08261287E+00
  1.14238340E+00  1.14238616E+00  1.20100033E+00  1.26189082E+00  1.39628366E+00
  1.43637572E+00  1.43637728E+00  1.48697370E+00  1.48697431E+00  1.51542357E+00
  1.51542494E+00  1.75688791E+00  1.78986809E+00  1.85728354E+00  1.89560060E+00
  1.97353224E+00  1.97353428E+00  2.06600051E+00  2.06600297E+00  2.15163783E+00
  2.15164107E+00  2.15441161E+00  2.15441221E+00  2.30948247E+00  2.30948403E+00
  2.32163244E+00  2.54574209E+00  2.54574371E+00  2.65690183E+00  2.70540257E+00
  2.70540363E+00  2.72192027E+00  2.72192131E+00  2.76005862E+00  3.01697322E+00
  3.41016445E+00  4.08519288E+00  4.11773602E+00  4.11773705E+00  4.33033894E+00
  4.33033967E+00  4.66588799E+00
Alpha MO coefficients                      R   N=       10404
  4.05157429E-01  1.97598368E-02  1.28215533E-04 -2.98029321E-06 -6.90103679E-13
 -2.55584325E-03 -3.59418752E-04  8.43131892E-06  9.09885640E-12 -3.93689739E-03
 -4.03087865E-03 -4.06688359E-03 -2.49362339E-06 -2.50729501E-13  9.10843110E-14
  4.05086890E-01  1.97562745E-02  6.15636003E-05 -1.12542290E-04  1.63331129E-12
 -2.55441189E-03 -1.72699954E-04  3.15679331E-04 -1.21026411E-11 -4.00863588E-03
 -3.95786440E-03 -4.06621061E-03 -4.57484472E-05  1.16468611E-12 -6.25520135E-13
  4.05175639E-01  1.97607550E-02 -6.66554065E-05 -1.09550492E-04 -3.21496563E-12
 -2.55633779E-03  1.86774675E-04  3.07056753E-04  2.16391286E-11 -4.00564813E-03
 -3.96242832E-03 -4.06704878E-03  4.82390596E-05 -1.30424982E-13  3.08823408E-12
  4.05131698E-01  1.97585601E-02 -1.28217115E-04  2.98655753E-06  7.49893815E-12
 -2.55557358E-03  3.59437617E-04 -8.46402834E-06 -3.69781762E-11 -3.93664959E-03
 -4.03062956E-03 -4.06663320E-03 -2.49266609E-06 -4.88291908E-12 -8.62461809E-13
  4.05063904E-01  1.97551346E-02 -6.15716344E-05  1.12539443E-04 -6.49526310E-12
 -2.55418299E-03  1.72743703E-04 -3.15668428E-04  3.38822631E-11 -4.00841410E-03
 -3.95764157E-03 -4.06598669E-03 -4.57470946E-05  5.07076115E-13 -4.30053752E-12
  4.05177908E-01  1.97608672E-02  6.66428765E-05  1.09558068E-04 -6.62617937E-14
 -2.55635469E-03 -1.86710769E-04 -3.07097725E-04 -9.34563106E-12 -4.00566867E-03
 -3.96245201E-03 -4.06707100E-03  4.82401520E-05  1.37216881E-12 -1.04894650E-12
 -1.92365689E-04  9.06199280E-04 -1.92338189E-04  9.06125425E-04 -1.92371832E-04
  9.06218419E-04 -1.92354588E-04  9.06158259E-04 -1.92328371E-04  9.06087584E-04
 -1.92372757E-04  9.06222736E-04 -4.49243495E-01 -2.22845499E-02  3.27907474E-05
  1.85179818E-04 -2.03685021E-13  4.59683651E-03 -3.07933624E-04 -9.53432657E-04
  2.16931623E-12  4.32716633E-03  4.35529902E-03  4.37371841E-03 -2.68247059E-05
 -6.89201914E-13 -1.84199309E-14  8.34700321E-02  4.14045903E-03  2.57348256E-04
  1.46792300E-04  6.79303460E-13 -8.53438300E-04 -1.31723939E-03 -7.80674173E-04
 -6.93095196E-12 -8.39941243E-04 -7.73312518E-04 -8.12655891E-04  2.13283943E-05
  1.06115283E-12 -3.23170898E-13  5.32773634E-01  2.64281092E-02  1.11843819E-04
 -2.84529801E-05 -3.10669840E-12 -5.45326145E-03 -6.63610281E-04  5.94920055E-06
  1.50610585E-11 -5.14285873E-03 -5.15387026E-03 -5.18690896E-03  2.32870173E-05
 -7.16707233E-13  1.72636925E-12  4.49242777E-01  2.22844993E-02  3.27836087E-05
  1.85179159E-04  7.09252164E-12 -4.59669964E-03 -3.07885143E-04 -9.53428749E-04
 -2.96194454E-11 -4.32716445E-03 -4.35530310E-03 -4.37371635E-03  2.68241390E-05
 -1.52913484E-12  2.04414241E-12 -8.34546023E-02 -4.13969597E-03  2.57345641E-04
  1.46790789E-04  1.94840339E-12  8.53251689E-04 -1.31723217E-03 -7.80648115E-04
 -2.08488749E-13  8.39794044E-04  7.73167285E-04  8.12504490E-04 -2.13272728E-05
 -2.04967289E-12 -3.64877535E-12 -5.32761576E-01 -2.64275161E-02  1.11847737E-04
 -2.84537033E-05  9.82837145E-13  5.45314236E-03 -6.63627749E-04  5.96597639E-06
 -4.20765340E-12  5.14274115E-03  5.15375601E-03  5.18678961E-03 -2.32874958E-05
  2.88680755E-12  4.02012022E-12  1.92931261E-04 -7.26978864E-04 -3.58417043E-05
  1.35140278E-04 -2.28819919E-04  8.61979724E-04 -1.92931866E-04  7.26987712E-04
  3.58350145E-05 -1.35112825E-04  2.28814505E-04 -8.61956172E-04 -3.55809774E-01
 -1.76499320E-02  1.71934158E-05 -2.35186807E-04 -1.70394848E-12  3.64291186E-03
 -1.99453813E-04  1.21752479E-03  7.99006408E-12  3.42941393E-03  3.44714422E-03
  3.46402967E-03  3.52943425E-05 -6.14811360E-13  5.20056143E-13 -5.66921520E-01
 -2.81218884E-02  5.55310314E-05 -1.06273953E-05  2.01589332E-13  5.80049151E-03
 -3.70697134E-04  2.08145465E-04 -5.61111059E-12  5.48253963E-03  5.47429231E-03
  5.51940501E-03  1.94135979E-05  4.17700926E-13 -4.33252298E-13 -2.11207227E-01
 -1.04769595E-02  2.30796475E-04 -1.56170509E-04  8.89723880E-13  2.16298598E-03
 -1.15801049E-03  8.63101879E-04  4.89083667E-12  2.07545863E-03  2.00640675E-03
  2.05621974E-03  1.27077949E-05 -4.99111479E-13  3.23535871E-12  3.55825187E-01
  1.76506797E-02  1.71867585E-05 -2.35183031E-04  5.12566720E-12 -3.64297556E-03
 -1.99428292E-04  1.21750145E-03 -2.64846351E-11 -3.42956491E-03 -3.44730049E-03
 -3.46418568E-03 -3.52925917E-05 -3.70477755E-12 -3.50408856E-12  5.66932866E-01
  2.81224312E-02  5.55246159E-05 -1.06211586E-05 -7.35173608E-12 -5.80047371E-03
 -3.70661792E-04  2.08115639E-04  3.77513028E-11 -5.48265955E-03 -5.47440653E-03
 -5.51952236E-03 -1.94161512E-05  3.72969909E-13 -3.64526378E-12  2.11234022E-01
  1.04782808E-02  2.30796548E-04 -1.56168606E-04 -4.95668032E-14 -2.16327785E-03
 -1.15799414E-03  8.63117327E-04 -9.20763517E-12 -2.07571431E-03 -2.00666292E-03
 -2.05648392E-03 -1.27072963E-05  2.75370537E-12 -5.02207030E-13  1.52823132E-04
 -5.75568304E-04  2.43464925E-04 -9.17451217E-04  9.07209995E-05 -3.41593365E-04
 -1.52830691E-04  5.75605412E-04 -2.43470948E-04  9.17483631E-04 -9.07328526E-05
  3.41643607E-04 -4.31847184E-01 -2.17601409E-02  1.88814881E-04 -1.57464428E-04
 -1.82775721E-12  8.64526724E-03 -1.78480344E-03  9.99902703E-04  2.45689581E-12
  3.97148660E-03  3.79028709E-03  4.10360757E-03  7.54876407E-05  6.42876134E-13
  4.31777457E-15 -1.10662288E-01 -5.57607505E-03  2.23982521E-04  6.63347203E-05
 -4.28673650E-13  2.21502728E-03 -1.47660314E-03 -2.79949369E-04 -7.30277104E-13
  8.95133355E-04  1.09387327E-03  1.05157218E-03  4.27650672E-05 -3.75336288E-14
  8.67454306E-13  5.42450295E-01  2.73333097E-02  6.13426616E-05  2.45609676E-04
 -4.74488748E-12 -1.08597761E-02 -7.77577066E-04 -2.18451103E-03  1.16345971E-11
 -4.85465124E-03 -4.89496619E-03 -5.15458388E-03 -1.30849728E-04  2.27459211E-12
 -2.43010176E-12 -4.31848679E-01 -2.17601965E-02 -1.88810119E-04  1.57465519E-04
 -8.42380814E-12  8.64496413E-03  1.78464306E-03 -9.99905226E-04  3.46925902E-11
  3.97150836E-03  3.79031343E-03  4.10362829E-03  7.54879441E-05  1.21371789E-12
  3.72914945E-12 -1.10677008E-01 -5.57682370E-03 -2.23988480E-04 -6.63314268E-05
 -2.56449504E-13  2.21549601E-03  1.47670164E-03  2.79808795E-04 -6.08192968E-12
  8.95264639E-04  1.09400731E-03  1.05170932E-03  4.27635993E-05  5.61674857E-12
  4.36295200E-12  5.42460987E-01  2.73338586E-02 -6.13496342E-05 -2.45611865E-04
 -2.25441626E-13 -1.08602038E-02  7.77685967E-04  2.18464148E-03 -1.19010126E-12
 -4.85474356E-03 -4.89506134E-03 -5.15468181E-03 -1.30851386E-04 -3.71367461E-12
 -4.51993463E-12  1.62556236E-04 -4.98759914E-04  4.16551401E-05 -1.27839554E-04
 -2.04181723E-04  6.26485288E-04  1.62554188E-04 -4.98793752E-04  4.16641517E-05
 -1.27831946E-04 -2.04189013E-04  6.26471174E-04 -3.77052750E-01 -1.89992275E-02
  1.72025701E-04  1.71368881E-04 -2.31973494E-12  7.54921881E-03 -1.60332618E-03
 -1.06091495E-03  4.22773151E-12  3.46107117E-03  3.31576404E-03  3.58289381E-03
 -9.58500232E-05 -1.60623815E-12  1.05984824E-13  5.62557256E-01  2.83464033E-02
 -8.08649787E-05  2.41429977E-04 -1.55172397E-12 -1.12619324E-02  8.83128744E-04
 -2.20058458E-03  4.67138138E-12 -5.01123849E-03 -5.09985228E-03 -5.34567457E-03
  1.23510327E-04 -6.48294509E-13  9.87809966E-13 -1.85409097E-01 -9.34256456E-03
 -2.31072924E-04  4.38790929E-05 -1.70714326E-12  3.71252793E-03  1.58148817E-03
 -5.36184727E-05  1.72076747E-12  1.56012954E-03  1.77222607E-03  1.76181137E-03
 -1.45023384E-05  3.04915586E-12 -4.53375534E-13 -3.77037611E-01 -1.89984346E-02
 -1.72013911E-04 -1.71373744E-04 -1.05715440E-11  7.54834189E-03  1.60295142E-03
  1.06094748E-03  3.72133876E-11  3.46094195E-03  3.31564419E-03  3.58276041E-03
 -9.58504606E-05  6.16526566E-13 -7.27933563E-12  5.62545361E-01  2.83457712E-02
  8.08561905E-05 -2.41421454E-04 -1.20677350E-11 -1.12610886E-02 -8.82933029E-04
  2.20026608E-03  5.03092296E-11 -5.01114825E-03 -5.09975613E-03 -5.34557274E-03
  1.23505993E-04  3.84091289E-12  2.73727380E-13 -1.85381872E-01 -9.34117212E-03
  2.31067154E-04 -4.38904150E-05 -3.26099594E-12  3.71152733E-03 -1.58129329E-03
  5.39484033E-05  6.14536873E-12  1.55989007E-03  1.77198286E-03  1.76156032E-03
 -1.45068055E-05  4.18138567E-12 -1.25600988E-12  1.41927292E-04 -4.35398853E-04
 -2.11760178E-04  6.49726951E-04  6.97907953E-05 -2.14062641E-04  1.41914688E-04
 -4.35445640E-04 -2.11748964E-04  6.49778980E-04  6.97729987E-05 -2.14089891E-04
  4.05537059E-01  2.10568883E-02 -2.70644972E-04  6.21501921E-06 -4.68491544E-12
 -2.03334590E-02  8.45516661E-03 -1.94959300E-04 -3.51285434E-13 -3.53352579E-03
 -3.32902478E-03 -3.63432734E-03  5.45373871E-06 -3.16857389E-12 -2.07102501E-12
 -4.05603844E-01 -2.10601895E-02  1.29908449E-04 -2.37514371E-04 -6.34658091E-12
  2.03341085E-02 -4.05858820E-03  7.41996089E-03  1.00863503E-11  3.37670399E-03
  3.48712931E-03  3.63497504E-03 -9.95233547E-05 -3.48396177E-13  4.05226980E-12
  4.05513926E-01  2.10557368E-02  1.40743964E-04  2.31258324E-04 -8.26659132E-12
 -2.03333207E-02 -4.39656520E-03 -7.22483005E-03  3.92517063E-11 -3.38400055E-03
 -3.47807577E-03 -3.63409444E-03 -1.04979652E-04  6.93335631E-12  4.95273099E-12
 -4.05562519E-01 -2.10581709E-02 -2.70656287E-04  6.21048012E-06 -1.06539004E-11
  2.03339658E-02  8.45527286E-03 -1.94931543E-04  1.14775394E-10  3.53375975E-03
  3.32924875E-03  3.63456935E-03 -5.45652155E-06  1.69003016E-11 -2.10412839E-12
  4.05626598E-01  2.10613362E-02  1.29907681E-04 -2.37526462E-04 -8.96937126E-12
 -2.03345655E-02 -4.05859844E-03  7.42006449E-03  1.04268636E-10 -3.37690833E-03
 -3.48733372E-03 -3.63519116E-03  9.95297049E-05  8.92133140E-12 -1.37415973E-11
 -4.05511688E-01 -2.10556237E-02  1.40752982E-04  2.31251527E-04 -9.90683911E-12